compute-0-0.local
 Entering Gaussian System, Link 0=g09
 Initial command:
 /share/apps/g09RelE.01/g09/l1.exe "/state/partition1/berta/Gau-4429.inp" -scrdir="/state/partition1/berta/"
 Entering Link 1 = /share/apps/g09RelE.01/g09/l1.exe PID=      4430.
  
 Copyright (c) 1988,1990,1992,1993,1995,1998,2003,2009,2015,
            Gaussian, Inc.  All Rights Reserved.
  
 This is part of the Gaussian(R) 09 program.  It is based on
 the Gaussian(R) 03 system (copyright 2003, Gaussian, Inc.),
 the Gaussian(R) 98 system (copyright 1998, Gaussian, Inc.),
 the Gaussian(R) 94 system (copyright 1995, Gaussian, Inc.),
 the Gaussian 92(TM) system (copyright 1992, Gaussian, Inc.),
 the Gaussian 90(TM) system (copyright 1990, Gaussian, Inc.),
 the Gaussian 88(TM) system (copyright 1988, Gaussian, Inc.),
 the Gaussian 86(TM) system (copyright 1986, Carnegie Mellon
 University), and the Gaussian 82(TM) system (copyright 1983,
 Carnegie Mellon University). Gaussian is a federally registered
 trademark of Gaussian, Inc.
  
 This software contains proprietary and confidential information,
 including trade secrets, belonging to Gaussian, Inc.
  
 This software is provided under written license and may be
 used, copied, transmitted, or stored only in accord with that
 written license.
  
 The following legend is applicable only to US Government
 contracts under FAR:
  
                    RESTRICTED RIGHTS LEGEND
  
 Use, reproduction and disclosure by the US Government is
 subject to restrictions as set forth in subparagraphs (a)
 and (c) of the Commercial Computer Software - Restricted
 Rights clause in FAR 52.227-19.
  
 Gaussian, Inc.
 340 Quinnipiac St., Bldg. 40, Wallingford CT 06492
  
  
 ---------------------------------------------------------------
 Warning -- This program may not be used in any manner that
 competes with the business of Gaussian, Inc. or will provide
 assistance to any competitor of Gaussian, Inc.  The licensee
 of this program is prohibited from giving any competitor of
 Gaussian, Inc. access to this program.  By using this program,
 the user acknowledges that Gaussian, Inc. is engaged in the
 business of creating and licensing software in the field of
 computational chemistry and represents and warrants to the
 licensee that it is not a competitor of Gaussian, Inc. and that
 it will not use this program in any manner prohibited above.
 ---------------------------------------------------------------
  

 Cite this work as:
 Gaussian 09, Revision E.01,
 M. J. Frisch, G. W. Trucks, H. B. Schlegel, G. E. Scuseria, 
 M. A. Robb, J. R. Cheeseman, G. Scalmani, V. Barone, B. Mennucci, 
 G. A. Petersson, H. Nakatsuji, M. Caricato, X. Li, H. P. Hratchian, 
 A. F. Izmaylov, J. Bloino, G. Zheng, J. L. Sonnenberg, M. Hada, 
 M. Ehara, K. Toyota, R. Fukuda, J. Hasegawa, M. Ishida, T. Nakajima, 
 Y. Honda, O. Kitao, H. Nakai, T. Vreven, J. A. Montgomery, Jr., 
 J. E. Peralta, F. Ogliaro, M. Bearpark, J. J. Heyd, E. Brothers, 
 K. N. Kudin, V. N. Staroverov, T. Keith, R. Kobayashi, J. Normand, 
 K. Raghavachari, A. Rendell, J. C. Burant, S. S. Iyengar, J. Tomasi, 
 M. Cossi, N. Rega, J. M. Millam, M. Klene, J. E. Knox, J. B. Cross, 
 V. Bakken, C. Adamo, J. Jaramillo, R. Gomperts, R. E. Stratmann, 
 O. Yazyev, A. J. Austin, R. Cammi, C. Pomelli, J. W. Ochterski, 
 R. L. Martin, K. Morokuma, V. G. Zakrzewski, G. A. Voth, 
 P. Salvador, J. J. Dannenberg, S. Dapprich, A. D. Daniels, 
 O. Farkas, J. B. Foresman, J. V. Ortiz, J. Cioslowski, 
 and D. J. Fox, Gaussian, Inc., Wallingford CT, 2013.
 
 ******************************************
 Gaussian 09:  ES64L-G09RevE.01 30-Nov-2015
                 9-Mar-2017 
 ******************************************
 %chk=AB-AB-NHscan.chk
 %nproc=4
 Will use up to    4 processors via shared memory.
 %mem=6455MB
 -----------------------------------------------------------
 #P RwB97XD/6-311G(d,p)int(grid=ultrafine) opt(modred,loose)
 -----------------------------------------------------------
 1/7=-1,14=-1,18=120,19=15,26=4,38=1/1,3;
 2/9=110,12=2,17=6,18=5,40=1/2;
 3/5=4,6=6,7=101,11=2,16=1,25=1,30=1,71=1,74=-58,75=-5,116=1/1,2,3;
 4//1;
 5/5=2,38=5/2;
 6/7=2,8=2,9=2,10=2,28=1/1;
 7//1,2,3,16;
 1/7=-1,14=-1,18=20,19=15,26=4/3(2);
 2/9=110/2;
 99//99;
 2/9=110/2;
 3/5=4,6=6,7=101,11=2,16=1,25=1,30=1,71=1,74=-58,75=-5,116=1/1,2,3;
 4/5=5,16=3,69=1/1;
 5/5=2,38=5/2;
 7//1,2,3,16;
 1/7=-1,14=-1,18=20,19=15,26=4/3(-5);
 2/9=110/2;
 6/7=2,8=2,9=2,10=2,19=2,28=1/1;
 99/9=1/99;
 Leave Link    1 at Thu Mar  9 15:17:48 2017, MaxMem=   846069760 cpu:         0.2
 (Enter /share/apps/g09RelE.01/g09/l101.exe)
 --------------------
 AB2-mult-scan7_2.gjf
 --------------------
 Symbolic Z-matrix:
 Charge =  0 Multiplicity = 1
 B                     0.02719   1.27603   0. 
 N                    -1.3016   -0.6049    0. 
 N                     1.27985   0.57023   0. 
 B                     0.       -1.2228    0. 
 H                     1.82838   0.48255   0.83918 
 H                     1.82838   0.48255  -0.83918 
 H                     0.42783  -1.63557   1.03873 
 H                     0.42783  -1.63557  -1.03873 
 H                    -1.85123  -0.53886  -0.83968 
 H                    -1.85123  -0.53886   0.83968 
 H                    -0.39685   1.68016  -1.04109 
 H                    -0.39685   1.68016   1.04109 
 
 Add virtual bond connecting atoms N2         and B1         Dist= 4.35D+00.
 Add virtual bond connecting atoms B4         and N3         Dist= 4.16D+00.
 The following ModRedundant input section has been read:
 B       1       2 F                                                           
 B       3       4 S   1 0.1000                                                
 
 NAtoms=     12 NQM=       12 NQMF=       0 NMMI=      0 NMMIF=      0
                NMic=       0 NMicF=      0.
                    Isotopes and Nuclear Properties:
 (Nuclear quadrupole moments (NQMom) in fm**2, nuclear magnetic moments (NMagM)
  in nuclear magnetons)

  Atom         1           2           3           4           5           6           7           8           9          10
 IAtWgt=          11          14          14          11           1           1           1           1           1           1
 AtmWgt=  11.0093053  14.0030740  14.0030740  11.0093053   1.0078250   1.0078250   1.0078250   1.0078250   1.0078250   1.0078250
 NucSpn=           3           2           2           3           1           1           1           1           1           1
 AtZEff=   0.0000000   0.0000000   0.0000000   0.0000000   0.0000000   0.0000000   0.0000000   0.0000000   0.0000000   0.0000000
 NQMom=    4.0590000   2.0440000   2.0440000   4.0590000   0.0000000   0.0000000   0.0000000   0.0000000   0.0000000   0.0000000
 NMagM=    2.6886370   0.4037610   0.4037610   2.6886370   2.7928460   2.7928460   2.7928460   2.7928460   2.7928460   2.7928460
 AtZNuc=   5.0000000   7.0000000   7.0000000   5.0000000   1.0000000   1.0000000   1.0000000   1.0000000   1.0000000   1.0000000

  Atom        11          12
 IAtWgt=           1           1
 AtmWgt=   1.0078250   1.0078250
 NucSpn=           1           1
 AtZEff=   0.0000000   0.0000000
 NQMom=    0.0000000   0.0000000
 NMagM=    2.7928460   2.7928460
 AtZNuc=   1.0000000   1.0000000
 Leave Link  101 at Thu Mar  9 15:17:48 2017, MaxMem=   846069760 cpu:         0.9
 (Enter /share/apps/g09RelE.01/g09/l103.exe)

 GradGradGradGradGradGradGradGradGradGradGradGradGradGradGradGradGradGrad
 Berny optimization.
 Initialization pass.
                           ----------------------------
                           !    Initial Parameters    !
                           ! (Angstroms and Degrees)  !
 --------------------------                            --------------------------
 ! Name  Definition              Value          Derivative Info.                !
 --------------------------------------------------------------------------------
 ! R1    R(1,2)                  2.3029         Frozen                          !
 ! R2    R(1,3)                  1.4378         estimate D2E/DX2                !
 ! R3    R(1,11)                 1.1946         estimate D2E/DX2                !
 ! R4    R(1,12)                 1.1946         estimate D2E/DX2                !
 ! R5    R(2,4)                  1.4408         estimate D2E/DX2                !
 ! R6    R(2,9)                  1.0057         estimate D2E/DX2                !
 ! R7    R(2,10)                 1.0057         estimate D2E/DX2                !
 ! R8    R(3,4)                  2.203          Scan                            !
 ! R9    R(3,5)                  1.0064         estimate D2E/DX2                !
 ! R10   R(3,6)                  1.0064         estimate D2E/DX2                !
 ! R11   R(4,7)                  1.1968         estimate D2E/DX2                !
 ! R12   R(4,8)                  1.1968         estimate D2E/DX2                !
 ! A1    A(2,1,3)               95.8409         estimate D2E/DX2                !
 ! A2    A(2,1,11)              94.0998         estimate D2E/DX2                !
 ! A3    A(2,1,12)              94.0998         estimate D2E/DX2                !
 ! A4    A(3,1,11)             118.381          estimate D2E/DX2                !
 ! A5    A(3,1,12)             118.381          estimate D2E/DX2                !
 ! A6    A(11,1,12)            121.2707         estimate D2E/DX2                !
 ! A7    A(1,2,4)               80.1555         estimate D2E/DX2                !
 ! A8    A(1,2,9)              105.1704         estimate D2E/DX2                !
 ! A9    A(1,2,10)             105.1704         estimate D2E/DX2                !
 ! A10   A(4,2,9)              121.4567         estimate D2E/DX2                !
 ! A11   A(4,2,10)             121.4567         estimate D2E/DX2                !
 ! A12   A(9,2,10)             113.2072         estimate D2E/DX2                !
 ! A13   A(1,3,4)               83.8797         estimate D2E/DX2                !
 ! A14   A(1,3,5)              121.174          estimate D2E/DX2                !
 ! A15   A(1,3,6)              121.174          estimate D2E/DX2                !
 ! A16   A(4,3,5)              104.2257         estimate D2E/DX2                !
 ! A17   A(4,3,6)              104.2257         estimate D2E/DX2                !
 ! A18   A(5,3,6)              112.9944         estimate D2E/DX2                !
 ! A19   A(2,4,3)              100.1239         estimate D2E/DX2                !
 ! A20   A(2,4,7)              118.0887         estimate D2E/DX2                !
 ! A21   A(2,4,8)              118.0887         estimate D2E/DX2                !
 ! A22   A(3,4,7)               94.1878         estimate D2E/DX2                !
 ! A23   A(3,4,8)               94.1878         estimate D2E/DX2                !
 ! A24   A(7,4,8)              120.4334         estimate D2E/DX2                !
 ! D1    D(3,1,2,4)              0.0            estimate D2E/DX2                !
 ! D2    D(3,1,2,9)           -120.1142         estimate D2E/DX2                !
 ! D3    D(3,1,2,10)           120.1142         estimate D2E/DX2                !
 ! D4    D(11,1,2,4)           119.1023         estimate D2E/DX2                !
 ! D5    D(11,1,2,9)            -1.0119         estimate D2E/DX2                !
 ! D6    D(11,1,2,10)         -120.7834         estimate D2E/DX2                !
 ! D7    D(12,1,2,4)          -119.1023         estimate D2E/DX2                !
 ! D8    D(12,1,2,9)           120.7834         estimate D2E/DX2                !
 ! D9    D(12,1,2,10)            1.0119         estimate D2E/DX2                !
 ! D10   D(2,1,3,4)              0.0            estimate D2E/DX2                !
 ! D11   D(2,1,3,5)           -102.9436         estimate D2E/DX2                !
 ! D12   D(2,1,3,6)            102.9436         estimate D2E/DX2                !
 ! D13   D(11,1,3,4)           -97.8716         estimate D2E/DX2                !
 ! D14   D(11,1,3,5)           159.1848         estimate D2E/DX2                !
 ! D15   D(11,1,3,6)             5.0719         estimate D2E/DX2                !
 ! D16   D(12,1,3,4)            97.8716         estimate D2E/DX2                !
 ! D17   D(12,1,3,5)            -5.0719         estimate D2E/DX2                !
 ! D18   D(12,1,3,6)          -159.1848         estimate D2E/DX2                !
 ! D19   D(1,2,4,3)              0.0            estimate D2E/DX2                !
 ! D20   D(1,2,4,7)            100.3337         estimate D2E/DX2                !
 ! D21   D(1,2,4,8)           -100.3337         estimate D2E/DX2                !
 ! D22   D(9,2,4,3)            101.8413         estimate D2E/DX2                !
 ! D23   D(9,2,4,7)           -157.825          estimate D2E/DX2                !
 ! D24   D(9,2,4,8)              1.5076         estimate D2E/DX2                !
 ! D25   D(10,2,4,3)          -101.8413         estimate D2E/DX2                !
 ! D26   D(10,2,4,7)            -1.5076         estimate D2E/DX2                !
 ! D27   D(10,2,4,8)           157.825          estimate D2E/DX2                !
 ! D28   D(1,3,4,2)              0.0            estimate D2E/DX2                !
 ! D29   D(1,3,4,7)           -119.5142         estimate D2E/DX2                !
 ! D30   D(1,3,4,8)            119.5142         estimate D2E/DX2                !
 ! D31   D(5,3,4,2)            120.6567         estimate D2E/DX2                !
 ! D32   D(5,3,4,7)              1.1425         estimate D2E/DX2                !
 ! D33   D(5,3,4,8)           -119.8291         estimate D2E/DX2                !
 ! D34   D(6,3,4,2)           -120.6567         estimate D2E/DX2                !
 ! D35   D(6,3,4,7)            119.8291         estimate D2E/DX2                !
 ! D36   D(6,3,4,8)             -1.1425         estimate D2E/DX2                !
 --------------------------------------------------------------------------------
 Trust Radius=3.00D-01 FncErr=1.00D-07 GrdErr=1.00D-06
 Number of optimizations in scan=   2
 Number of steps in this run=     82 maximum allowed number of steps=    100.
 GradGradGradGradGradGradGradGradGradGradGradGradGradGradGradGradGradGrad

 Leave Link  103 at Thu Mar  9 15:17:48 2017, MaxMem=   846069760 cpu:         0.1
 (Enter /share/apps/g09RelE.01/g09/l202.exe)
                          Input orientation:                          
 ---------------------------------------------------------------------
 Center     Atomic      Atomic             Coordinates (Angstroms)
 Number     Number       Type             X           Y           Z
 ---------------------------------------------------------------------
      1          5           0        0.027192    1.276027    0.000000
      2          7           0       -1.301595   -0.604903    0.000000
      3          7           0        1.279849    0.570234    0.000000
      4          5           0        0.000000   -1.222803    0.000000
      5          1           0        1.828384    0.482546    0.839180
      6          1           0        1.828384    0.482546   -0.839180
      7          1           0        0.427832   -1.635565    1.038731
      8          1           0        0.427832   -1.635565   -1.038731
      9          1           0       -1.851234   -0.538856   -0.839682
     10          1           0       -1.851234   -0.538856    0.839682
     11          1           0       -0.396851    1.680161   -1.041091
     12          1           0       -0.396851    1.680161    1.041091
 ---------------------------------------------------------------------
                    Distance matrix (angstroms):
                    1          2          3          4          5
     1  B    0.000000
     2  N    2.302949   0.000000
     3  N    1.437809   2.836336   0.000000
     4  B    2.498978   1.440816   2.202951   0.000000
     5  H    2.139656   3.418119   1.006381   2.637314   0.000000
     6  H    2.139656   3.418119   1.006381   2.637314   1.678360
     7  H    3.117185   2.265424   2.582720   1.196819   2.547108
     8  H    3.117185   2.265424   2.582720   1.196819   3.158242
     9  H    2.743602   1.005749   3.426197   2.144742   4.171502
    10  H    2.743602   1.005749   3.426197   2.144742   3.818750
    11  H    1.194574   2.669073   2.264317   3.109431   3.149821
    12  H    1.194574   2.669073   2.264317   3.109431   2.535098
                    6          7          8          9         10
     6  H    0.000000
     7  H    3.158242   0.000000
     8  H    2.547108   2.077462   0.000000
     9  H    3.818750   3.150452   2.537032   0.000000
    10  H    4.171502   2.537032   3.150452   1.679364   0.000000
    11  H    2.535098   3.999975   3.416745   2.660795   3.252164
    12  H    3.149821   3.416745   3.999975   3.252164   2.660795
                   11         12
    11  H    0.000000
    12  H    2.082182   0.000000
 Stoichiometry    B2H8N2
 Framework group  CS[SG(B2N2),X(H8)]
 Deg. of freedom    17
 Full point group                 CS      NOp   2
 Largest Abelian subgroup         CS      NOp   2
 Largest concise Abelian subgroup CS      NOp   2
                         Standard orientation:                         
 ---------------------------------------------------------------------
 Center     Atomic      Atomic             Coordinates (Angstroms)
 Number     Number       Type             X           Y           Z
 ---------------------------------------------------------------------
      1          5           0       -0.027192   -1.276027    0.000000
      2          7           0        1.301595    0.604903    0.000000
      3          7           0       -1.279849   -0.570234    0.000000
      4          5           0        0.000000    1.222803    0.000000
      5          1           0       -1.828384   -0.482546    0.839180
      6          1           0       -1.828384   -0.482546   -0.839180
      7          1           0       -0.427832    1.635565    1.038731
      8          1           0       -0.427832    1.635565   -1.038731
      9          1           0        1.851234    0.538856   -0.839682
     10          1           0        1.851234    0.538856    0.839682
     11          1           0        0.396851   -1.680161   -1.041091
     12          1           0        0.396851   -1.680161    1.041091
 ---------------------------------------------------------------------
 Rotational constants (GHZ):     11.7494011      5.7047296      4.3120210
 Leave Link  202 at Thu Mar  9 15:17:48 2017, MaxMem=   846069760 cpu:         0.0
 (Enter /share/apps/g09RelE.01/g09/l301.exe)
 Standard basis: 6-311G(d,p) (5D, 7F)
 Ernie: Thresh=  0.10000D-02 Tol=  0.10000D-05 Strict=F.
 There are    80 symmetry adapted cartesian basis functions of A'  symmetry.
 There are    44 symmetry adapted cartesian basis functions of A"  symmetry.
 There are    76 symmetry adapted basis functions of A'  symmetry.
 There are    44 symmetry adapted basis functions of A"  symmetry.
   120 basis functions,   192 primitive gaussians,   124 cartesian basis functions
    16 alpha electrons       16 beta electrons
       nuclear repulsion energy       114.2170232914 Hartrees.
 IExCor= 4639 DFT=T Ex+Corr=wB97XD ExCW=0 ScaHFX=  1.000000
 ScaDFX=  1.000000  1.000000  1.000000  1.000000 ScalE2=  1.000000  1.000000
 IRadAn=      5 IRanWt=     -1 IRanGd=            0 ICorTp=0 IEmpDi=121
  HFx wShort=  0.000000 wLong=  0.200000 cFull=  0.222036 cShort=  0.000000 cLong=  0.777964
  DFx wShort=  0.000000 wLong=  0.200000 cFull=  0.000000 cShort=  0.000000 cLong=  1.000000
 NAtoms=   12 NActive=   12 NUniq=    8 SFac= 2.25D+00 NAtFMM=   60 NAOKFM=F Big=F
 Integral buffers will be    131072 words long.
 Raffenetti 2 integral format.
 Two-electron integral symmetry is turned on.
 R6Disp:  Grimme-D2 Dispersion energy=       -0.0056577425 Hartrees.
 Nuclear repulsion after empirical dispersion term =      114.2113655489 Hartrees.
 Leave Link  301 at Thu Mar  9 15:17:48 2017, MaxMem=   846069760 cpu:         0.3
 (Enter /share/apps/g09RelE.01/g09/l302.exe)
 NPDir=0 NMtPBC=     1 NCelOv=     1 NCel=       1 NClECP=     1 NCelD=      1
         NCelK=      1 NCelE2=     1 NClLst=     1 CellRange=     0.0.
 One-electron integrals computed using PRISM.
 One-electron integral symmetry used in STVInt
 NBasis=   120 RedAO= T EigKep=  5.84D-03  NBF=    76    44
 NBsUse=   120 1.00D-06 EigRej= -1.00D+00 NBFU=    76    44
 Precomputing XC quadrature grid using
 IXCGrd= 4 IRadAn=           5 IRanWt=          -1 IRanGd=           0 AccXCQ= 0.00D+00.
 Generated NRdTot=       0 NPtTot=           0 NUsed=           0 NTot=          32
 NSgBfM=   124   124   124   124   124 MxSgAt=    12 MxSgA2=    12.
 Leave Link  302 at Thu Mar  9 15:17:49 2017, MaxMem=   846069760 cpu:         1.2
 (Enter /share/apps/g09RelE.01/g09/l303.exe)
 DipDrv:  MaxL=1.
 Leave Link  303 at Thu Mar  9 15:17:49 2017, MaxMem=   846069760 cpu:         0.1
 (Enter /share/apps/g09RelE.01/g09/l401.exe)
 ExpMin= 9.89D-02 ExpMax= 6.29D+03 ExpMxC= 9.49D+02 IAcc=3 IRadAn=         5 AccDes= 0.00D+00
 Harris functional with IExCor= 4639 and IRadAn=       5 diagonalized for initial guess.
 HarFok:  IExCor= 4639 AccDes= 0.00D+00 IRadAn=         5 IDoV= 1 UseB2=F ITyADJ=14
 ICtDFT=  3500011 ScaDFX=  1.000000  1.000000  1.000000  1.000000
 FoFCou: FMM=F IPFlag=           0 FMFlag=      100000 FMFlg1=           0
         NFxFlg=           0 DoJE=T BraDBF=F KetDBF=T FulRan=T
         wScrn=  0.000000 ICntrl=     500 IOpCl=  0 I1Cent=   200000004 NGrid=           0
         NMat0=    1 NMatS0=      1 NMatT0=    0 NMatD0=    1 NMtDS0=    0 NMtDT0=    0
 Petite list used in FoFCou.
 Harris En= -156.187756029880    
 JPrj=0 DoOrth=F DoCkMO=F.
 Initial guess orbital symmetries:
       Occupied  (A') (A') (A') (A') (A') (A') (A') (A') (A") (A")
                 (A') (A') (A') (A") (A") (A')
       Virtual   (A') (A') (A') (A') (A") (A') (A") (A') (A") (A')
                 (A') (A") (A') (A") (A') (A") (A') (A') (A') (A")
                 (A') (A') (A") (A') (A') (A") (A') (A") (A") (A')
                 (A') (A") (A') (A') (A') (A") (A') (A") (A') (A')
                 (A") (A') (A") (A') (A") (A') (A") (A') (A') (A")
                 (A") (A') (A") (A') (A") (A') (A") (A') (A") (A')
                 (A') (A") (A') (A") (A') (A') (A") (A') (A') (A")
                 (A') (A') (A') (A") (A') (A") (A') (A") (A") (A')
                 (A') (A") (A") (A') (A') (A') (A') (A") (A') (A')
                 (A") (A') (A") (A") (A') (A') (A') (A') (A") (A")
                 (A') (A') (A') (A')
 The electronic state of the initial guess is 1-A'.
 Leave Link  401 at Thu Mar  9 15:17:50 2017, MaxMem=   846069760 cpu:         5.2
 (Enter /share/apps/g09RelE.01/g09/l502.exe)
 Closed shell SCF:
 Using DIIS extrapolation, IDIIS=  1040.
 Integral symmetry usage will be decided dynamically.
 Keep R1 ints in memory in symmetry-blocked form, NReq=79321962.
 IVT=       66538 IEndB=       66538 NGot=   846069760 MDV=   832725105
 LenX=   832725105 LenY=   832709288
 Requested convergence on RMS density matrix=1.00D-08 within 128 cycles.
 Requested convergence on MAX density matrix=1.00D-06.
 Requested convergence on             energy=1.00D-06.
 No special actions if energy rises.
 FoFCou: FMM=F IPFlag=           0 FMFlag=           0 FMFlg1=           0
         NFxFlg=           0 DoJE=F BraDBF=F KetDBF=F FulRan=T
         wScrn=  0.000000 ICntrl=     600 IOpCl=  0 I1Cent=           0 NGrid=           0
         NMat0=    1 NMatS0=   7260 NMatT0=    0 NMatD0=    1 NMtDS0=    0 NMtDT0=    0
 Petite list used in FoFCou.
 Integral accuracy reduced to 1.0D-05 until final iterations.

 Cycle   1  Pass 0  IDiag  1:
 E= -164.015937653442    
 DIIS: error= 9.85D-02 at cycle   1 NSaved=   1.
 NSaved= 1 IEnMin= 1 EnMin= -164.015937653442     IErMin= 1 ErrMin= 9.85D-02
 ErrMax= 9.85D-02  0.00D+00 EMaxC= 1.00D-01 BMatC= 3.44D-01 BMatP= 3.44D-01
 IDIUse=3 WtCom= 1.54D-02 WtEn= 9.85D-01
 Coeff-Com:  0.100D+01
 Coeff-En:   0.100D+01
 Coeff:      0.100D+01
 Gap=     0.427 Goal=   None    Shift=    0.000
 GapD=    0.427 DampG=2.000 DampE=0.500 DampFc=1.0000 IDamp=-1.
 RMSDP=1.52D-03 MaxDP=2.46D-02              OVMax= 7.80D-02

 Cycle   2  Pass 0  IDiag  1:
 E= -164.059561608303     Delta-E=       -0.043623954862 Rises=F Damp=F
 DIIS: error= 8.00D-03 at cycle   2 NSaved=   2.
 NSaved= 2 IEnMin= 2 EnMin= -164.059561608303     IErMin= 2 ErrMin= 8.00D-03
 ErrMax= 8.00D-03  0.00D+00 EMaxC= 1.00D-01 BMatC= 3.78D-03 BMatP= 3.44D-01
 IDIUse=3 WtCom= 9.20D-01 WtEn= 8.00D-02
 Coeff-Com:  0.544D-01 0.946D+00
 Coeff-En:   0.000D+00 0.100D+01
 Coeff:      0.501D-01 0.950D+00
 Gap=     0.407 Goal=   None    Shift=    0.000
 RMSDP=5.41D-04 MaxDP=1.95D-02 DE=-4.36D-02 OVMax= 1.70D-02

 Cycle   3  Pass 0  IDiag  1:
 E= -164.062008093703     Delta-E=       -0.002446485399 Rises=F Damp=F
 DIIS: error= 3.36D-03 at cycle   3 NSaved=   3.
 NSaved= 3 IEnMin= 3 EnMin= -164.062008093703     IErMin= 3 ErrMin= 3.36D-03
 ErrMax= 3.36D-03  0.00D+00 EMaxC= 1.00D-01 BMatC= 1.02D-03 BMatP= 3.78D-03
 IDIUse=3 WtCom= 9.66D-01 WtEn= 3.36D-02
 Coeff-Com:  0.152D-01 0.356D+00 0.629D+00
 Coeff-En:   0.000D+00 0.368D-01 0.963D+00
 Coeff:      0.147D-01 0.345D+00 0.640D+00
 Gap=     0.408 Goal=   None    Shift=    0.000
 RMSDP=1.87D-04 MaxDP=5.33D-03 DE=-2.45D-03 OVMax= 1.03D-02

 Cycle   4  Pass 0  IDiag  1:
 E= -164.062927656861     Delta-E=       -0.000919563159 Rises=F Damp=F
 DIIS: error= 7.51D-04 at cycle   4 NSaved=   4.
 NSaved= 4 IEnMin= 4 EnMin= -164.062927656861     IErMin= 4 ErrMin= 7.51D-04
 ErrMax= 7.51D-04  0.00D+00 EMaxC= 1.00D-01 BMatC= 5.42D-05 BMatP= 1.02D-03
 IDIUse=3 WtCom= 9.92D-01 WtEn= 7.51D-03
 Coeff-Com:  0.377D-02 0.902D-01 0.241D+00 0.665D+00
 Coeff-En:   0.000D+00 0.000D+00 0.000D+00 0.100D+01
 Coeff:      0.374D-02 0.895D-01 0.239D+00 0.668D+00
 Gap=     0.407 Goal=   None    Shift=    0.000
 RMSDP=3.94D-05 MaxDP=1.62D-03 DE=-9.20D-04 OVMax= 2.44D-03

 Cycle   5  Pass 0  IDiag  1:
 E= -164.062971177216     Delta-E=       -0.000043520355 Rises=F Damp=F
 DIIS: error= 1.96D-04 at cycle   5 NSaved=   5.
 NSaved= 5 IEnMin= 5 EnMin= -164.062971177216     IErMin= 5 ErrMin= 1.96D-04
 ErrMax= 1.96D-04  0.00D+00 EMaxC= 1.00D-01 BMatC= 5.74D-06 BMatP= 5.42D-05
 IDIUse=3 WtCom= 9.98D-01 WtEn= 1.96D-03
 Coeff-Com: -0.190D-02-0.402D-01-0.358D-01 0.219D+00 0.859D+00
 Coeff-En:   0.000D+00 0.000D+00 0.000D+00 0.000D+00 0.100D+01
 Coeff:     -0.190D-02-0.401D-01-0.358D-01 0.219D+00 0.859D+00
 Gap=     0.407 Goal=   None    Shift=    0.000
 RMSDP=2.04D-05 MaxDP=4.76D-04 DE=-4.35D-05 OVMax= 1.24D-03

 Cycle   6  Pass 0  IDiag  1:
 E= -164.062978470436     Delta-E=       -0.000007293219 Rises=F Damp=F
 DIIS: error= 6.40D-05 at cycle   6 NSaved=   6.
 NSaved= 6 IEnMin= 6 EnMin= -164.062978470436     IErMin= 6 ErrMin= 6.40D-05
 ErrMax= 6.40D-05  0.00D+00 EMaxC= 1.00D-01 BMatC= 1.78D-07 BMatP= 5.74D-06
 IDIUse=1 WtCom= 1.00D+00 WtEn= 0.00D+00
 Coeff-Com: -0.521D-03-0.109D-01-0.144D-01 0.466D-02 0.143D+00 0.878D+00
 Coeff:     -0.521D-03-0.109D-01-0.144D-01 0.466D-02 0.143D+00 0.878D+00
 Gap=     0.407 Goal=   None    Shift=    0.000
 RMSDP=4.74D-06 MaxDP=8.59D-05 DE=-7.29D-06 OVMax= 3.47D-04

 Initial convergence to 1.0D-05 achieved.  Increase integral accuracy.
 Cycle   7  Pass 1  IDiag  1:
 E= -164.063023371861     Delta-E=       -0.000044901425 Rises=F Damp=F
 DIIS: error= 4.18D-05 at cycle   1 NSaved=   1.
 NSaved= 1 IEnMin= 1 EnMin= -164.063023371861     IErMin= 1 ErrMin= 4.18D-05
 ErrMax= 4.18D-05  0.00D+00 EMaxC= 1.00D-01 BMatC= 2.26D-07 BMatP= 2.26D-07
 IDIUse=1 WtCom= 1.00D+00 WtEn= 0.00D+00
 Coeff-Com:  0.100D+01
 Coeff:      0.100D+01
 Gap=     0.407 Goal=   None    Shift=    0.000
 RMSDP=4.74D-06 MaxDP=8.59D-05 DE=-4.49D-05 OVMax= 1.37D-04

 Cycle   8  Pass 1  IDiag  1:
 E= -164.063023633901     Delta-E=       -0.000000262041 Rises=F Damp=F
 DIIS: error= 1.87D-05 at cycle   2 NSaved=   2.
 NSaved= 2 IEnMin= 2 EnMin= -164.063023633901     IErMin= 2 ErrMin= 1.87D-05
 ErrMax= 1.87D-05  0.00D+00 EMaxC= 1.00D-01 BMatC= 4.10D-08 BMatP= 2.26D-07
 IDIUse=1 WtCom= 1.00D+00 WtEn= 0.00D+00
 Coeff-Com:  0.188D+00 0.812D+00
 Coeff:      0.188D+00 0.812D+00
 Gap=     0.407 Goal=   None    Shift=    0.000
 RMSDP=1.44D-06 MaxDP=5.40D-05 DE=-2.62D-07 OVMax= 7.76D-05

 Cycle   9  Pass 1  IDiag  1:
 E= -164.063023661272     Delta-E=       -0.000000027371 Rises=F Damp=F
 DIIS: error= 1.21D-05 at cycle   3 NSaved=   3.
 NSaved= 3 IEnMin= 3 EnMin= -164.063023661272     IErMin= 3 ErrMin= 1.21D-05
 ErrMax= 1.21D-05  0.00D+00 EMaxC= 1.00D-01 BMatC= 1.49D-08 BMatP= 4.10D-08
 IDIUse=1 WtCom= 1.00D+00 WtEn= 0.00D+00
 Coeff-Com: -0.761D-01 0.354D+00 0.722D+00
 Coeff:     -0.761D-01 0.354D+00 0.722D+00
 Gap=     0.407 Goal=   None    Shift=    0.000
 RMSDP=6.27D-07 MaxDP=2.11D-05 DE=-2.74D-08 OVMax= 3.17D-05

 Cycle  10  Pass 1  IDiag  1:
 E= -164.063023674237     Delta-E=       -0.000000012964 Rises=F Damp=F
 DIIS: error= 1.20D-06 at cycle   4 NSaved=   4.
 NSaved= 4 IEnMin= 4 EnMin= -164.063023674237     IErMin= 4 ErrMin= 1.20D-06
 ErrMax= 1.20D-06  0.00D+00 EMaxC= 1.00D-01 BMatC= 1.53D-10 BMatP= 1.49D-08
 IDIUse=1 WtCom= 1.00D+00 WtEn= 0.00D+00
 Coeff-Com: -0.744D-02-0.242D-01 0.265D-01 0.101D+01
 Coeff:     -0.744D-02-0.242D-01 0.265D-01 0.101D+01
 Gap=     0.407 Goal=   None    Shift=    0.000
 RMSDP=1.71D-07 MaxDP=2.92D-06 DE=-1.30D-08 OVMax= 1.30D-05

 Cycle  11  Pass 1  IDiag  1:
 E= -164.063023674633     Delta-E=       -0.000000000397 Rises=F Damp=F
 DIIS: error= 9.08D-07 at cycle   5 NSaved=   5.
 NSaved= 5 IEnMin= 5 EnMin= -164.063023674633     IErMin= 5 ErrMin= 9.08D-07
 ErrMax= 9.08D-07  0.00D+00 EMaxC= 1.00D-01 BMatC= 4.38D-11 BMatP= 1.53D-10
 IDIUse=1 WtCom= 1.00D+00 WtEn= 0.00D+00
 Coeff-Com:  0.233D-02-0.333D-01-0.433D-01 0.359D+00 0.715D+00
 Coeff:      0.233D-02-0.333D-01-0.433D-01 0.359D+00 0.715D+00
 Gap=     0.407 Goal=   None    Shift=    0.000
 RMSDP=5.98D-08 MaxDP=1.26D-06 DE=-3.97D-10 OVMax= 4.79D-06

 Cycle  12  Pass 1  IDiag  1:
 E= -164.063023674697     Delta-E=       -0.000000000064 Rises=F Damp=F
 DIIS: error= 3.71D-07 at cycle   6 NSaved=   6.
 NSaved= 6 IEnMin= 6 EnMin= -164.063023674697     IErMin= 6 ErrMin= 3.71D-07
 ErrMax= 3.71D-07  0.00D+00 EMaxC= 1.00D-01 BMatC= 6.96D-12 BMatP= 4.38D-11
 IDIUse=1 WtCom= 1.00D+00 WtEn= 0.00D+00
 Coeff-Com:  0.236D-02-0.871D-02-0.242D-01-0.554D-01 0.255D+00 0.831D+00
 Coeff:      0.236D-02-0.871D-02-0.242D-01-0.554D-01 0.255D+00 0.831D+00
 Gap=     0.407 Goal=   None    Shift=    0.000
 RMSDP=3.35D-08 MaxDP=4.93D-07 DE=-6.43D-11 OVMax= 3.15D-06

 Cycle  13  Pass 1  IDiag  1:
 E= -164.063023674713     Delta-E=       -0.000000000015 Rises=F Damp=F
 DIIS: error= 1.20D-07 at cycle   7 NSaved=   7.
 NSaved= 7 IEnMin= 7 EnMin= -164.063023674713     IErMin= 7 ErrMin= 1.20D-07
 ErrMax= 1.20D-07  0.00D+00 EMaxC= 1.00D-01 BMatC= 4.64D-13 BMatP= 6.96D-12
 IDIUse=1 WtCom= 1.00D+00 WtEn= 0.00D+00
 Coeff-Com:  0.121D-03 0.211D-02 0.108D-02-0.429D-01-0.437D-01 0.128D+00
 Coeff-Com:  0.956D+00
 Coeff:      0.121D-03 0.211D-02 0.108D-02-0.429D-01-0.437D-01 0.128D+00
 Coeff:      0.956D+00
 Gap=     0.407 Goal=   None    Shift=    0.000
 RMSDP=1.32D-08 MaxDP=2.04D-07 DE=-1.52D-11 OVMax= 1.29D-06

 Cycle  14  Pass 1  IDiag  1:
 E= -164.063023674714     Delta-E=       -0.000000000002 Rises=F Damp=F
 DIIS: error= 3.33D-08 at cycle   8 NSaved=   8.
 NSaved= 8 IEnMin= 8 EnMin= -164.063023674714     IErMin= 8 ErrMin= 3.33D-08
 ErrMax= 3.33D-08  0.00D+00 EMaxC= 1.00D-01 BMatC= 4.85D-14 BMatP= 4.64D-13
 IDIUse=1 WtCom= 1.00D+00 WtEn= 0.00D+00
 Coeff-Com: -0.269D-03 0.111D-02 0.321D-02 0.501D-02-0.374D-01-0.103D+00
 Coeff-Com:  0.690D-01 0.106D+01
 Coeff:     -0.269D-03 0.111D-02 0.321D-02 0.501D-02-0.374D-01-0.103D+00
 Coeff:      0.690D-01 0.106D+01
 Gap=     0.407 Goal=   None    Shift=    0.000
 RMSDP=5.71D-09 MaxDP=9.17D-08 DE=-1.71D-12 OVMax= 5.47D-07

 SCF Done:  E(RwB97XD) =  -164.063023675     A.U. after   14 cycles
            NFock= 14  Conv=0.57D-08     -V/T= 2.0045
 KE= 1.633339628529D+02 PE=-6.097116231232D+02 EE= 1.681032710466D+02
 Leave Link  502 at Thu Mar  9 15:18:06 2017, MaxMem=   846069760 cpu:        64.8
 (Enter /share/apps/g09RelE.01/g09/l601.exe)
 Copying SCF densities to generalized density rwf, IOpCl= 0 IROHF=0.

 **********************************************************************

            Population analysis using the SCF density.

 **********************************************************************

 Orbital symmetries:
       Occupied  (A') (A') (A') (A') (A') (A') (A') (A") (A') (A")
                 (A') (A') (A') (A") (A") (A')
       Virtual   (A') (A') (A') (A") (A') (A") (A') (A') (A") (A')
                 (A") (A') (A") (A') (A') (A") (A') (A') (A') (A")
                 (A") (A') (A') (A') (A') (A') (A") (A") (A') (A')
                 (A") (A") (A') (A') (A') (A") (A') (A") (A') (A')
                 (A") (A") (A') (A') (A") (A") (A') (A') (A') (A")
                 (A") (A") (A') (A") (A') (A') (A") (A') (A") (A')
                 (A') (A") (A") (A') (A') (A') (A") (A') (A') (A")
                 (A') (A') (A') (A") (A') (A") (A') (A") (A") (A')
                 (A') (A") (A") (A') (A') (A') (A') (A") (A') (A")
                 (A') (A') (A") (A") (A') (A') (A') (A') (A") (A")
                 (A') (A') (A') (A')
 The electronic state is 1-A'.
 Alpha  occ. eigenvalues --  -14.42314 -14.41303  -6.84624  -6.83966  -0.97282
 Alpha  occ. eigenvalues --   -0.95197  -0.62414  -0.60182  -0.60024  -0.58376
 Alpha  occ. eigenvalues --   -0.47966  -0.47390  -0.42509  -0.40329  -0.39487
 Alpha  occ. eigenvalues --   -0.32323
 Alpha virt. eigenvalues --    0.08393   0.11038   0.14465   0.15273   0.16494
 Alpha virt. eigenvalues --    0.19464   0.20532   0.21019   0.23689   0.24611
 Alpha virt. eigenvalues --    0.26988   0.27988   0.34026   0.34270   0.39227
 Alpha virt. eigenvalues --    0.40616   0.46029   0.47601   0.50324   0.52622
 Alpha virt. eigenvalues --    0.54839   0.54970   0.55424   0.59893   0.62992
 Alpha virt. eigenvalues --    0.65740   0.65796   0.69947   0.78017   0.78398
 Alpha virt. eigenvalues --    0.78469   0.80879   0.82993   0.91356   0.93986
 Alpha virt. eigenvalues --    1.02533   1.02859   1.03796   1.05897   1.15166
 Alpha virt. eigenvalues --    1.21501   1.26247   1.26255   1.30795   1.32529
 Alpha virt. eigenvalues --    1.35302   1.39257   1.46329   1.64237   1.65887
 Alpha virt. eigenvalues --    1.69407   1.70699   1.72494   1.74887   1.76411
 Alpha virt. eigenvalues --    1.78491   1.82905   1.83199   1.89305   1.95329
 Alpha virt. eigenvalues --    1.99954   2.02635   2.03481   2.04094   2.09641
 Alpha virt. eigenvalues --    2.12346   2.14481   2.18269   2.20245   2.20346
 Alpha virt. eigenvalues --    2.30223   2.32727   2.50340   2.52648   2.53406
 Alpha virt. eigenvalues --    2.56964   2.59595   2.61575   2.62795   2.65113
 Alpha virt. eigenvalues --    2.68584   2.75483   2.78799   2.81189   2.81323
 Alpha virt. eigenvalues --    2.91715   2.93487   2.99121   3.05122   3.07983
 Alpha virt. eigenvalues --    3.09434   3.20333   3.30393   3.31902   3.96589
 Alpha virt. eigenvalues --    4.03592   4.68363   4.81641   4.86414   4.87277
 Alpha virt. eigenvalues --   14.74809  14.79724  35.72274  35.75767
          Condensed to atoms (all electrons):
               1          2          3          4          5          6
     1  B    3.585529   0.066106   0.411728  -0.008206  -0.032950  -0.032950
     2  N    0.066106   6.394330  -0.044541   0.417934   0.001302   0.001302
     3  N    0.411728  -0.044541   6.393665   0.070799   0.375181   0.375181
     4  B   -0.008206   0.417934   0.070799   3.577165  -0.003771  -0.003771
     5  H   -0.032950   0.001302   0.375181  -0.003771   0.461142  -0.033239
     6  H   -0.032950   0.001302   0.375181  -0.003771  -0.033239   0.461142
     7  H   -0.004128  -0.022874  -0.016450   0.436880  -0.002280   0.001231
     8  H   -0.004128  -0.022874  -0.016450   0.436880   0.001231  -0.002280
     9  H   -0.002251   0.376537   0.001197  -0.034637  -0.000109   0.000004
    10  H   -0.002251   0.376537   0.001197  -0.034637   0.000004  -0.000109
    11  H    0.435413  -0.012574  -0.022268  -0.003861   0.005804  -0.010016
    12  H    0.435413  -0.012574  -0.022268  -0.003861  -0.010016   0.005804
               7          8          9         10         11         12
     1  B   -0.004128  -0.004128  -0.002251  -0.002251   0.435413   0.435413
     2  N   -0.022874  -0.022874   0.376537   0.376537  -0.012574  -0.012574
     3  N   -0.016450  -0.016450   0.001197   0.001197  -0.022268  -0.022268
     4  B    0.436880   0.436880  -0.034637  -0.034637  -0.003861  -0.003861
     5  H   -0.002280   0.001231  -0.000109   0.000004   0.005804  -0.010016
     6  H    0.001231  -0.002280   0.000004  -0.000109  -0.010016   0.005804
     7  H    0.695314  -0.024538   0.006033  -0.010259  -0.000546   0.001201
     8  H   -0.024538   0.695314  -0.010259   0.006033   0.001201  -0.000546
     9  H    0.006033  -0.010259   0.466204  -0.034116  -0.001680   0.000994
    10  H   -0.010259   0.006033  -0.034116   0.466204   0.000994  -0.001680
    11  H   -0.000546   0.001201  -0.001680   0.000994   0.682350  -0.024528
    12  H    0.001201  -0.000546   0.000994  -0.001680  -0.024528   0.682350
 Mulliken charges:
               1
     1  B    0.152677
     2  N   -0.518611
     3  N   -0.506972
     4  B    0.153086
     5  H    0.237701
     6  H    0.237701
     7  H   -0.059585
     8  H   -0.059585
     9  H    0.232082
    10  H    0.232082
    11  H   -0.050288
    12  H   -0.050288
 Sum of Mulliken charges =  -0.00000
 Mulliken charges with hydrogens summed into heavy atoms:
               1
     1  B    0.052102
     2  N   -0.054447
     3  N   -0.031571
     4  B    0.033916
 Electronic spatial extent (au):  <R**2>=            335.5102
 Charge=             -0.0000 electrons
 Dipole moment (field-independent basis, Debye):
    X=             -0.1563    Y=             -0.2192    Z=             -0.0000  Tot=              0.2692
 Quadrupole moment (field-independent basis, Debye-Ang):
   XX=            -20.8115   YY=            -33.1351   ZZ=            -26.5586
   XY=              2.4627   XZ=              0.0000   YZ=             -0.0000
 Traceless Quadrupole moment (field-independent basis, Debye-Ang):
   XX=              6.0236   YY=             -6.3000   ZZ=              0.2765
   XY=              2.4627   XZ=              0.0000   YZ=             -0.0000
 Octapole moment (field-independent basis, Debye-Ang**2):
  XXX=             -0.0523  YYY=             -0.6877  ZZZ=             -0.0000  XYY=              0.0189
  XXY=              0.1735  XXZ=              0.0000  XZZ=              0.0989  YZZ=             -0.0268
  YYZ=             -0.0000  XYZ=              0.0000
 Hexadecapole moment (field-independent basis, Debye-Ang**3):
 XXXX=           -152.2529 YYYY=           -243.0152 ZZZZ=            -66.0563 XXXY=            -16.1545
 XXXZ=             -0.0000 YYYX=            -20.1120 YYYZ=              0.0000 ZZZX=              0.0000
 ZZZY=             -0.0000 XXYY=            -74.4442 XXZZ=            -28.7777 YYZZ=            -54.5827
 XXYZ=             -0.0000 YYXZ=              0.0000 ZZXY=             -3.0825
 N-N= 1.142113655489D+02 E-N=-6.097116222068D+02  KE= 1.633339628529D+02
 Symmetry A'   KE= 1.549498478186D+02
 Symmetry A"   KE= 8.384115034370D+00
 No NMR shielding tensors so no spin-rotation constants.
 Leave Link  601 at Thu Mar  9 15:18:07 2017, MaxMem=   846069760 cpu:         0.8
 (Enter /share/apps/g09RelE.01/g09/l701.exe)
 Compute integral first derivatives.
 ... and contract with generalized density number  0.
 R6Disp: Adding Grimme-D2 dispersion energy 1st derivatives to the gradient.
 Leave Link  701 at Thu Mar  9 15:18:07 2017, MaxMem=   846069760 cpu:         0.7
 (Enter /share/apps/g09RelE.01/g09/l702.exe)
 L702 exits ... SP integral derivatives will be done elsewhere.
 Leave Link  702 at Thu Mar  9 15:18:07 2017, MaxMem=   846069760 cpu:         0.1
 (Enter /share/apps/g09RelE.01/g09/l703.exe)
 Compute integral first derivatives, UseDBF=F ICtDFT=           0.
 Integral derivatives from FoFJK, PRISM(SPDF).
 Calling FoFJK, ICntrl=      2127 FMM=F ISym2X=1 I1Cent= 0 IOpClX= 0 NMat=1 NMatS=1 NMatT=0.
 FoFJK:  IHMeth= 1 ICntrl=    2127 DoSepK=T KAlg= 0 I1Cent=   0 FoldK=F
 IRaf=         1 NMat=   1 IRICut=       1 DoRegI=T DoRafI=F ISym2E= 1.
 FoFCou: FMM=F IPFlag=           0 FMFlag=      100000 FMFlg1=         800
         NFxFlg=           0 DoJE=F BraDBF=F KetDBF=F FulRan=T
         wScrn=  0.000000 ICntrl=    2527 IOpCl=  0 I1Cent=           0 NGrid=           0
         NMat0=    1 NMatS0=      1 NMatT0=    0 NMatD0=    1 NMtDS0=    0 NMtDT0=    0
 Petite list used in FoFCou.
 Leave Link  703 at Thu Mar  9 15:18:12 2017, MaxMem=   846069760 cpu:        19.2
 (Enter /share/apps/g09RelE.01/g09/l716.exe)
 Dipole        =-6.14867595D-02-8.62267506D-02-2.22044605D-16
 ***** Axes restored to original set *****
 -------------------------------------------------------------------
 Center     Atomic                   Forces (Hartrees/Bohr)
 Number     Number              X              Y              Z
 -------------------------------------------------------------------
      1        5           0.000193324    0.000268515    0.000000000
      2        7          -0.000498808   -0.000545524   -0.000000000
      3        7           0.002128843    0.002746328    0.000000000
      4        5          -0.001589981   -0.002862501   -0.000000000
      5        1          -0.000066284   -0.000008995    0.000030929
      6        1          -0.000066284   -0.000008995   -0.000030929
      7        1          -0.000096142    0.000041370    0.000048854
      8        1          -0.000096142    0.000041370   -0.000048854
      9        1           0.000061281    0.000092671   -0.000042455
     10        1           0.000061281    0.000092671    0.000042455
     11        1          -0.000015544    0.000071545    0.000020167
     12        1          -0.000015544    0.000071545   -0.000020167
 -------------------------------------------------------------------
 Cartesian Forces:  Max     0.002862501 RMS     0.000808453
 Leave Link  716 at Thu Mar  9 15:18:12 2017, MaxMem=   846069760 cpu:         0.1
 (Enter /share/apps/g09RelE.01/g09/l103.exe)

 GradGradGradGradGradGradGradGradGradGradGradGradGradGradGradGradGradGrad
 Berny optimization.
 FormGI is forming the generalized inverse of G from B-inverse, IUseBI=4.
 Internal  Forces:  Max     0.002947324 RMS     0.000379735
 Search for a local minimum.
 Step number   1 out of a maximum of   82 on scan point     1 out of     2
 All quantities printed in internal units (Hartrees-Bohrs-Radians)
 RMS Force = .36094D-04 SwitMx=.10000D-02 MixMth= 2
 Mixed Optimization -- En-DIIS/RFO-DIIS
 Second derivative matrix not updated -- first step.
 ITU=  0
     Eigenvalues ---    0.00557   0.02606   0.03649   0.03695   0.04111
     Eigenvalues ---    0.04419   0.04692   0.04845   0.06560   0.07298
     Eigenvalues ---    0.07546   0.07865   0.07884   0.08015   0.08091
     Eigenvalues ---    0.08603   0.09079   0.21775   0.24899   0.24899
     Eigenvalues ---    0.25066   0.25066   0.37084   0.39689   0.46584
     Eigenvalues ---    0.46584   0.46692   0.466921000.000001000.00000
     Eigenvalues --- 1000.000001000.000001000.000001000.000001000.00000
     Eigenvalues --- 1000.000001000.000001000.000001000.000001000.00000
     Eigenvalues --- 1000.000001000.000001000.000001000.000001000.00000
     Eigenvalues --- 1000.000001000.000001000.000001000.000001000.00000
     Eigenvalues --- 1000.000001000.000001000.000001000.000001000.00000
     Eigenvalues --- 1000.000001000.000001000.000001000.000001000.00000
     Eigenvalues --- 1000.000001000.000001000.000001000.000001000.00000
     Eigenvalues --- 1000.000001000.000001000.000001000.000001000.00000
     Eigenvalues --- 1000.000001000.00000
 RFO step:  Lambda=-9.87468853D-07 EMin= 5.57057116D-03
 Linear search not attempted -- first point.
 Iteration  1 RMS(Cart)=  0.00028496 RMS(Int)=  0.00000019
 Iteration  2 RMS(Cart)=  0.00000014 RMS(Int)=  0.00000013
 Iteration  1 RMS(Cart)=  0.00000000 RMS(Int)=  0.00000000
 ITry= 1 IFail=0 DXMaxC= 7.81D-04 DCOld= 1.00D+10 DXMaxT= 3.00D-01 DXLimC= 3.00D+00 Rises=F
 ClnCor:  largest displacement from symmetrization is 2.63D-10 for atom     8.
 Variable       Old X    -DE/DX   Delta X   Delta X   Delta X     New X
                                 (Linear)    (Quad)   (Total)
    R1        4.35194   0.00086   0.00000   0.00000  -0.00000   4.35194
    R2        2.71706   0.00012   0.00000   0.00016   0.00016   2.71722
    R3        2.25742   0.00001   0.00000   0.00005   0.00005   2.25747
    R4        2.25742   0.00001   0.00000   0.00005   0.00005   2.25747
    R5        2.72275   0.00006   0.00000   0.00038   0.00038   2.72313
    R6        1.90059   0.00001   0.00000   0.00002   0.00002   1.90061
    R7        1.90059   0.00001   0.00000   0.00002   0.00002   1.90061
    R8        4.16297   0.00295   0.00000   0.00000   0.00000   4.16297
    R9        1.90178  -0.00001   0.00000  -0.00002  -0.00002   1.90176
   R10        1.90178  -0.00001   0.00000  -0.00002  -0.00002   1.90176
   R11        2.26166  -0.00001   0.00000  -0.00002  -0.00002   2.26163
   R12        2.26166  -0.00001   0.00000  -0.00002  -0.00002   2.26163
    A1        1.67274   0.00038   0.00000   0.00004   0.00004   1.67278
    A2        1.64235  -0.00013   0.00000   0.00044   0.00044   1.64279
    A3        1.64235  -0.00013   0.00000   0.00044   0.00044   1.64279
    A4        2.06614  -0.00001   0.00000   0.00017   0.00017   2.06631
    A5        2.06614  -0.00001   0.00000   0.00017   0.00017   2.06631
    A6        2.11657  -0.00002   0.00000  -0.00060  -0.00060   2.11597
    A7        1.39898   0.00039   0.00000  -0.00002  -0.00002   1.39896
    A8        1.83557  -0.00019   0.00000  -0.00085  -0.00085   1.83472
    A9        1.83557  -0.00019   0.00000  -0.00085  -0.00085   1.83472
   A10        2.11982  -0.00005   0.00000   0.00013   0.00013   2.11995
   A11        2.11982  -0.00005   0.00000   0.00013   0.00013   2.11995
   A12        1.97584   0.00010   0.00000   0.00041   0.00041   1.97624
   A13        1.46398  -0.00033   0.00000   0.00002   0.00002   1.46399
   A14        2.11489   0.00003   0.00000  -0.00019  -0.00019   2.11470
   A15        2.11489   0.00003   0.00000  -0.00019  -0.00019   2.11470
   A16        1.81908   0.00012   0.00000  -0.00023  -0.00023   1.81885
   A17        1.81908   0.00012   0.00000  -0.00023  -0.00023   1.81885
   A18        1.97213  -0.00001   0.00000   0.00053   0.00053   1.97265
   A19        1.74749  -0.00045   0.00000  -0.00003  -0.00003   1.74746
   A20        2.06104  -0.00001   0.00000  -0.00059  -0.00059   2.06045
   A21        2.06104  -0.00001   0.00000  -0.00059  -0.00059   2.06045
   A22        1.64389   0.00019   0.00000   0.00026   0.00026   1.64415
   A23        1.64389   0.00019   0.00000   0.00026   0.00026   1.64415
   A24        2.10196   0.00005   0.00000   0.00102   0.00102   2.10298
    D1        0.00000   0.00000   0.00000   0.00000   0.00000   0.00000
    D2       -2.09639  -0.00004   0.00000  -0.00017  -0.00017  -2.09656
    D3        2.09639   0.00004   0.00000   0.00017   0.00017   2.09656
    D4        2.07873   0.00003   0.00000   0.00025   0.00025   2.07897
    D5       -0.01766  -0.00001   0.00000   0.00008   0.00008  -0.01758
    D6       -2.10807   0.00006   0.00000   0.00041   0.00041  -2.10765
    D7       -2.07873  -0.00003   0.00000  -0.00025  -0.00025  -2.07897
    D8        2.10807  -0.00006   0.00000  -0.00041  -0.00041   2.10765
    D9        0.01766   0.00001   0.00000  -0.00008  -0.00008   0.01758
   D10        0.00000  -0.00000   0.00000  -0.00000   0.00000   0.00000
   D11       -1.79670   0.00006   0.00000   0.00027   0.00027  -1.79644
   D12        1.79670  -0.00006   0.00000  -0.00027  -0.00027   1.79644
   D13       -1.70818  -0.00007   0.00000  -0.00055  -0.00055  -1.70873
   D14        2.77830  -0.00001   0.00000  -0.00028  -0.00028   2.77802
   D15        0.08852  -0.00013   0.00000  -0.00082  -0.00082   0.08770
   D16        1.70818   0.00007   0.00000   0.00055   0.00055   1.70873
   D17       -0.08852   0.00013   0.00000   0.00082   0.00082  -0.08770
   D18       -2.77830   0.00001   0.00000   0.00028   0.00028  -2.77802
   D19        0.00000  -0.00000   0.00000  -0.00000   0.00000   0.00000
   D20        1.75115  -0.00004   0.00000   0.00012   0.00012   1.75128
   D21       -1.75115   0.00004   0.00000  -0.00012  -0.00012  -1.75128
   D22        1.77747   0.00000   0.00000  -0.00102  -0.00102   1.77645
   D23       -2.75457  -0.00004   0.00000  -0.00089  -0.00089  -2.75546
   D24        0.02631   0.00005   0.00000  -0.00114  -0.00114   0.02517
   D25       -1.77747  -0.00000   0.00000   0.00102   0.00102  -1.77645
   D26       -0.02631  -0.00005   0.00000   0.00114   0.00114  -0.02517
   D27        2.75457   0.00004   0.00000   0.00089   0.00089   2.75546
   D28        0.00000   0.00000   0.00000   0.00000   0.00000   0.00000
   D29       -2.08592   0.00005   0.00000   0.00055   0.00055  -2.08537
   D30        2.08592  -0.00005   0.00000  -0.00055  -0.00055   2.08537
   D31        2.10586  -0.00004   0.00000  -0.00020  -0.00020   2.10566
   D32        0.01994   0.00001   0.00000   0.00035   0.00035   0.02029
   D33       -2.09141  -0.00010   0.00000  -0.00075  -0.00075  -2.09216
   D34       -2.10586   0.00004   0.00000   0.00020   0.00020  -2.10566
   D35        2.09141   0.00010   0.00000   0.00075   0.00075   2.09216
   D36       -0.01994  -0.00001   0.00000  -0.00035  -0.00035  -0.02029
         Item               Value     Threshold  Converged?
 Maximum Force            0.000137     0.002500     YES
 RMS     Force            0.000036     0.001667     YES
 Maximum Displacement     0.000781     0.010000     YES
 RMS     Displacement     0.000285     0.006667     YES
 Predicted change in Energy=-4.937533D-07
 Optimization completed.
    -- Stationary point found.
                           ----------------------------
                           !   Optimized Parameters   !
                           ! (Angstroms and Degrees)  !
 --------------------------                            --------------------------
 ! Name  Definition              Value          Derivative Info.                !
 --------------------------------------------------------------------------------
 ! R1    R(1,2)                  2.3029         -DE/DX =    0.0009              !
 ! R2    R(1,3)                  1.4378         -DE/DX =    0.0001              !
 ! R3    R(1,11)                 1.1946         -DE/DX =    0.0                 !
 ! R4    R(1,12)                 1.1946         -DE/DX =    0.0                 !
 ! R5    R(2,4)                  1.4408         -DE/DX =    0.0001              !
 ! R6    R(2,9)                  1.0057         -DE/DX =    0.0                 !
 ! R7    R(2,10)                 1.0057         -DE/DX =    0.0                 !
 ! R8    R(3,4)                  2.203          -DE/DX =    0.0029              !
 ! R9    R(3,5)                  1.0064         -DE/DX =    0.0                 !
 ! R10   R(3,6)                  1.0064         -DE/DX =    0.0                 !
 ! R11   R(4,7)                  1.1968         -DE/DX =    0.0                 !
 ! R12   R(4,8)                  1.1968         -DE/DX =    0.0                 !
 ! A1    A(2,1,3)               95.8409         -DE/DX =    0.0004              !
 ! A2    A(2,1,11)              94.0998         -DE/DX =   -0.0001              !
 ! A3    A(2,1,12)              94.0998         -DE/DX =   -0.0001              !
 ! A4    A(3,1,11)             118.381          -DE/DX =    0.0                 !
 ! A5    A(3,1,12)             118.381          -DE/DX =    0.0                 !
 ! A6    A(11,1,12)            121.2707         -DE/DX =    0.0                 !
 ! A7    A(1,2,4)               80.1555         -DE/DX =    0.0004              !
 ! A8    A(1,2,9)              105.1704         -DE/DX =   -0.0002              !
 ! A9    A(1,2,10)             105.1704         -DE/DX =   -0.0002              !
 ! A10   A(4,2,9)              121.4567         -DE/DX =   -0.0001              !
 ! A11   A(4,2,10)             121.4567         -DE/DX =   -0.0001              !
 ! A12   A(9,2,10)             113.2072         -DE/DX =    0.0001              !
 ! A13   A(1,3,4)               83.8797         -DE/DX =   -0.0003              !
 ! A14   A(1,3,5)              121.174          -DE/DX =    0.0                 !
 ! A15   A(1,3,6)              121.174          -DE/DX =    0.0                 !
 ! A16   A(4,3,5)              104.2257         -DE/DX =    0.0001              !
 ! A17   A(4,3,6)              104.2257         -DE/DX =    0.0001              !
 ! A18   A(5,3,6)              112.9944         -DE/DX =    0.0                 !
 ! A19   A(2,4,3)              100.1239         -DE/DX =   -0.0004              !
 ! A20   A(2,4,7)              118.0887         -DE/DX =    0.0                 !
 ! A21   A(2,4,8)              118.0887         -DE/DX =    0.0                 !
 ! A22   A(3,4,7)               94.1878         -DE/DX =    0.0002              !
 ! A23   A(3,4,8)               94.1878         -DE/DX =    0.0002              !
 ! A24   A(7,4,8)              120.4334         -DE/DX =    0.0001              !
 ! D1    D(3,1,2,4)              0.0            -DE/DX =    0.0                 !
 ! D2    D(3,1,2,9)           -120.1142         -DE/DX =    0.0                 !
 ! D3    D(3,1,2,10)           120.1142         -DE/DX =    0.0                 !
 ! D4    D(11,1,2,4)           119.1023         -DE/DX =    0.0                 !
 ! D5    D(11,1,2,9)            -1.0119         -DE/DX =    0.0                 !
 ! D6    D(11,1,2,10)         -120.7834         -DE/DX =    0.0001              !
 ! D7    D(12,1,2,4)          -119.1023         -DE/DX =    0.0                 !
 ! D8    D(12,1,2,9)           120.7834         -DE/DX =   -0.0001              !
 ! D9    D(12,1,2,10)            1.0119         -DE/DX =    0.0                 !
 ! D10   D(2,1,3,4)              0.0            -DE/DX =    0.0                 !
 ! D11   D(2,1,3,5)           -102.9436         -DE/DX =    0.0001              !
 ! D12   D(2,1,3,6)            102.9436         -DE/DX =   -0.0001              !
 ! D13   D(11,1,3,4)           -97.8716         -DE/DX =   -0.0001              !
 ! D14   D(11,1,3,5)           159.1848         -DE/DX =    0.0                 !
 ! D15   D(11,1,3,6)             5.0719         -DE/DX =   -0.0001              !
 ! D16   D(12,1,3,4)            97.8716         -DE/DX =    0.0001              !
 ! D17   D(12,1,3,5)            -5.0719         -DE/DX =    0.0001              !
 ! D18   D(12,1,3,6)          -159.1848         -DE/DX =    0.0                 !
 ! D19   D(1,2,4,3)              0.0            -DE/DX =    0.0                 !
 ! D20   D(1,2,4,7)            100.3337         -DE/DX =    0.0                 !
 ! D21   D(1,2,4,8)           -100.3337         -DE/DX =    0.0                 !
 ! D22   D(9,2,4,3)            101.8413         -DE/DX =    0.0                 !
 ! D23   D(9,2,4,7)           -157.825          -DE/DX =    0.0                 !
 ! D24   D(9,2,4,8)              1.5076         -DE/DX =    0.0                 !
 ! D25   D(10,2,4,3)          -101.8413         -DE/DX =    0.0                 !
 ! D26   D(10,2,4,7)            -1.5076         -DE/DX =    0.0                 !
 ! D27   D(10,2,4,8)           157.825          -DE/DX =    0.0                 !
 ! D28   D(1,3,4,2)              0.0            -DE/DX =    0.0                 !
 ! D29   D(1,3,4,7)           -119.5142         -DE/DX =    0.0001              !
 ! D30   D(1,3,4,8)            119.5142         -DE/DX =   -0.0001              !
 ! D31   D(5,3,4,2)            120.6567         -DE/DX =    0.0                 !
 ! D32   D(5,3,4,7)              1.1425         -DE/DX =    0.0                 !
 ! D33   D(5,3,4,8)           -119.8291         -DE/DX =   -0.0001              !
 ! D34   D(6,3,4,2)           -120.6567         -DE/DX =    0.0                 !
 ! D35   D(6,3,4,7)            119.8291         -DE/DX =    0.0001              !
 ! D36   D(6,3,4,8)             -1.1425         -DE/DX =    0.0                 !
 --------------------------------------------------------------------------------
 Lowest energy point so far.  Saving SCF results.
 Iteration  1 RMS(Cart)=  0.02754572 RMS(Int)=  0.00838543
 Iteration  2 RMS(Cart)=  0.00010789 RMS(Int)=  0.00838505
 Iteration  3 RMS(Cart)=  0.00000041 RMS(Int)=  0.00838505
 Iteration  1 RMS(Cart)=  0.00557440 RMS(Int)=  0.00237689
 Iteration  2 RMS(Cart)=  0.00158019 RMS(Int)=  0.00260713
 Iteration  3 RMS(Cart)=  0.00044794 RMS(Int)=  0.00274589
 Iteration  4 RMS(Cart)=  0.00012698 RMS(Int)=  0.00278999
 Iteration  5 RMS(Cart)=  0.00003600 RMS(Int)=  0.00280284
 Iteration  6 RMS(Cart)=  0.00001020 RMS(Int)=  0.00280651
 Iteration  7 RMS(Cart)=  0.00000289 RMS(Int)=  0.00280756
 Iteration  8 RMS(Cart)=  0.00000082 RMS(Int)=  0.00280785
 GradGradGradGradGradGradGradGradGradGradGradGradGradGradGradGradGradGrad

 Leave Link  103 at Thu Mar  9 15:18:12 2017, MaxMem=   846069760 cpu:         0.1
 (Enter /share/apps/g09RelE.01/g09/l202.exe)
                          Input orientation:                          
 ---------------------------------------------------------------------
 Center     Atomic      Atomic             Coordinates (Angstroms)
 Number     Number       Type             X           Y           Z
 ---------------------------------------------------------------------
      1          5           0        0.029994    1.274121    0.000000
      2          7           0       -1.301501   -0.604893   -0.000000
      3          7           0        1.309254    0.611798    0.000000
      4          5           0       -0.024279   -1.265773    0.000000
      5          1           0        1.861767    0.538069    0.837905
      6          1           0        1.861767    0.538069   -0.837905
      7          1           0        0.393155   -1.690124    1.038282
      8          1           0        0.393155   -1.690124   -1.038282
      9          1           0       -1.846894   -0.524519   -0.841217
     10          1           0       -1.846894   -0.524519    0.841217
     11          1           0       -0.403908    1.666510   -1.041556
     12          1           0       -0.403908    1.666510    1.041556
 ---------------------------------------------------------------------
                    Distance matrix (angstroms):
                    1          2          3          4          5
     1  B    0.000000
     2  N    2.302949   0.000000
     3  N    1.440548   2.880344   0.000000
     4  B    2.540474   1.438075   2.302951   0.000000
     5  H    2.144586   3.466225   1.006375   2.741003   0.000000
     6  H    2.144586   3.466225   1.006375   2.741003   1.675809
     7  H    3.161750   2.264424   2.686282   1.196810   2.676157
     8  H    3.161750   2.264424   2.686282   1.196810   3.262168
     9  H    2.732300   1.005763   3.458343   2.139866   4.207459
    10  H    2.732300   1.005763   3.458343   2.139866   3.857884
    11  H    1.194604   2.655143   2.265432   3.134843   3.152624
    12  H    1.194604   2.655143   2.265432   3.134843   2.539318
                    6          7          8          9         10
     6  H    0.000000
     7  H    3.262168   0.000000
     8  H    2.676157   2.076564   0.000000
     9  H    3.857884   3.147852   2.532842   0.000000
    10  H    4.207459   2.532842   3.147852   1.682433   0.000000
    11  H    2.539318   4.028402   3.449972   2.631150   3.229187
    12  H    3.152624   3.449972   4.028402   3.229187   2.631150
                   11         12
    11  H    0.000000
    12  H    2.083112   0.000000
 Stoichiometry    B2H8N2
 Framework group  CS[SG(B2N2),X(H8)]
 Deg. of freedom    17
 Full point group                 CS      NOp   2
 RotChk:  IX=0 Diff= 3.02D-02
 Largest Abelian subgroup         CS      NOp   2
 Largest concise Abelian subgroup CS      NOp   2
                         Standard orientation:                         
 ---------------------------------------------------------------------
 Center     Atomic      Atomic             Coordinates (Angstroms)
 Number     Number       Type             X           Y           Z
 ---------------------------------------------------------------------
      1          5           0        0.000063   -1.272225    0.000000
      2          7           0        1.291065    0.634838    0.000000
      3          7           0       -1.293071   -0.637414    0.000000
      4          5           0        0.000000    1.268249    0.000000
      5          1           0       -1.847034   -0.575519    0.837905
      6          1           0       -1.847034   -0.575519   -0.837905
      7          1           0       -0.426415    1.683574    1.038282
      8          1           0       -0.426415    1.683574   -1.038282
      9          1           0        1.838052    0.566147   -0.841217
     10          1           0        1.838052    0.566147    0.841217
     11          1           0        0.442258   -1.655244   -1.041556
     12          1           0        0.442258   -1.655244    1.041556
 ---------------------------------------------------------------------
 Rotational constants (GHZ):     11.7108790      5.5017082      4.1901566
 Leave Link  202 at Thu Mar  9 15:18:12 2017, MaxMem=   846069760 cpu:         0.0
 (Enter /share/apps/g09RelE.01/g09/l301.exe)
 Standard basis: 6-311G(d,p) (5D, 7F)
 Ernie: Thresh=  0.10000D-02 Tol=  0.10000D-05 Strict=F.
 There are    80 symmetry adapted cartesian basis functions of A'  symmetry.
 There are    44 symmetry adapted cartesian basis functions of A"  symmetry.
 There are    76 symmetry adapted basis functions of A'  symmetry.
 There are    44 symmetry adapted basis functions of A"  symmetry.
   120 basis functions,   192 primitive gaussians,   124 cartesian basis functions
    16 alpha electrons       16 beta electrons
       nuclear repulsion energy       113.3397218875 Hartrees.
 IExCor= 4639 DFT=T Ex+Corr=wB97XD ExCW=0 ScaHFX=  1.000000
 ScaDFX=  1.000000  1.000000  1.000000  1.000000 ScalE2=  1.000000  1.000000
 IRadAn=      5 IRanWt=     -1 IRanGd=            0 ICorTp=0 IEmpDi=121
  HFx wShort=  0.000000 wLong=  0.200000 cFull=  0.222036 cShort=  0.000000 cLong=  0.777964
  DFx wShort=  0.000000 wLong=  0.200000 cFull=  0.000000 cShort=  0.000000 cLong=  1.000000
 NAtoms=   12 NActive=   12 NUniq=    8 SFac= 2.25D+00 NAtFMM=   60 NAOKFM=F Big=F
 Integral buffers will be    131072 words long.
 Raffenetti 2 integral format.
 Two-electron integral symmetry is turned on.
 R6Disp:  Grimme-D2 Dispersion energy=       -0.0056416894 Hartrees.
 Nuclear repulsion after empirical dispersion term =      113.3340801980 Hartrees.
 Leave Link  301 at Thu Mar  9 15:18:12 2017, MaxMem=   846069760 cpu:         0.3
 (Enter /share/apps/g09RelE.01/g09/l302.exe)
 NPDir=0 NMtPBC=     1 NCelOv=     1 NCel=       1 NClECP=     1 NCelD=      1
         NCelK=      1 NCelE2=     1 NClLst=     1 CellRange=     0.0.
 One-electron integrals computed using PRISM.
 One-electron integral symmetry used in STVInt
 NBasis=   120 RedAO= T EigKep=  6.06D-03  NBF=    76    44
 NBsUse=   120 1.00D-06 EigRej= -1.00D+00 NBFU=    76    44
 Precomputing XC quadrature grid using
 IXCGrd= 4 IRadAn=           5 IRanWt=          -1 IRanGd=           0 AccXCQ= 0.00D+00.
 Generated NRdTot=       0 NPtTot=           0 NUsed=           0 NTot=          32
 NSgBfM=   124   124   124   124   124 MxSgAt=    12 MxSgA2=    12.
 Leave Link  302 at Thu Mar  9 15:18:12 2017, MaxMem=   846069760 cpu:         1.2
 (Enter /share/apps/g09RelE.01/g09/l303.exe)
 DipDrv:  MaxL=1.
 Leave Link  303 at Thu Mar  9 15:18:12 2017, MaxMem=   846069760 cpu:         0.1
 (Enter /share/apps/g09RelE.01/g09/l401.exe)
 Initial guess from the checkpoint file:  "AB-AB-NHscan.chk"
 B after Tr=     0.000000    0.000000    0.000000
         Rot=    0.999936   -0.000000   -0.000000   -0.011297 Ang=  -1.29 deg.
 Guess basis will be translated and rotated to current coordinates.
 JPrj=2 DoOrth=T DoCkMO=T.
 Initial guess orbital symmetries:
       Occupied  (A') (A') (A') (A') (A') (A') (A') (A") (A') (A")
                 (A') (A') (A') (A") (A") (A')
       Virtual   (A') (A') (A') (A') (A') (A') (A') (A') (A') (A')
                 (A') (A') (A') (A') (A') (A') (A') (A') (A') (A')
                 (A') (A') (A') (A') (A') (A') (A') (A') (A') (A')
                 (A') (A') (A') (A') (A') (A') (A') (A') (A') (A')
                 (A') (A') (A') (A') (A') (A') (A') (A') (A') (A')
                 (A') (A') (A') (A') (A') (A') (A') (A') (A') (A')
                 (A') (A') (A') (A') (A") (A") (A") (A") (A") (A")
                 (A") (A") (A") (A") (A") (A") (A") (A") (A") (A")
                 (A") (A") (A") (A") (A") (A") (A") (A") (A") (A")
                 (A") (A") (A") (A") (A") (A") (A") (A") (A") (A")
                 (A") (A") (A") (A")
 The electronic state of the initial guess is 1-A'.
 Generating alternative initial guess.
 ExpMin= 9.89D-02 ExpMax= 6.29D+03 ExpMxC= 9.49D+02 IAcc=2 IRadAn=         4 AccDes= 0.00D+00
 Harris functional with IExCor= 4639 and IRadAn=       4 diagonalized for initial guess.
 HarFok:  IExCor= 4639 AccDes= 0.00D+00 IRadAn=         4 IDoV= 1 UseB2=F ITyADJ=14
 ICtDFT=  3500011 ScaDFX=  1.000000  1.000000  1.000000  1.000000
 FoFCou: FMM=F IPFlag=           0 FMFlag=      100000 FMFlg1=           0
         NFxFlg=           0 DoJE=T BraDBF=F KetDBF=T FulRan=T
         wScrn=  0.000000 ICntrl=     500 IOpCl=  0 I1Cent=   200000004 NGrid=           0
         NMat0=    1 NMatS0=      1 NMatT0=    0 NMatD0=    1 NMtDS0=    0 NMtDT0=    0
 Petite list used in FoFCou.
 Harris En= -156.188115541877    
 Leave Link  401 at Thu Mar  9 15:18:13 2017, MaxMem=   846069760 cpu:         2.8
 (Enter /share/apps/g09RelE.01/g09/l502.exe)
 Closed shell SCF:
 Using DIIS extrapolation, IDIIS=  1040.
 Integral symmetry usage will be decided dynamically.
 Keep R1 ints in memory in symmetry-blocked form, NReq=79321962.
 IVT=       66538 IEndB=       66538 NGot=   846069760 MDV=   832725105
 LenX=   832725105 LenY=   832709288
 Requested convergence on RMS density matrix=1.00D-08 within 128 cycles.
 Requested convergence on MAX density matrix=1.00D-06.
 Requested convergence on             energy=1.00D-06.
 No special actions if energy rises.
 FoFCou: FMM=F IPFlag=           0 FMFlag=           0 FMFlg1=           0
         NFxFlg=           0 DoJE=F BraDBF=F KetDBF=F FulRan=T
         wScrn=  0.000000 ICntrl=     600 IOpCl=  0 I1Cent=           0 NGrid=           0
         NMat0=    1 NMatS0=   7260 NMatT0=    0 NMatD0=    1 NMtDS0=    0 NMtDT0=    0
 Petite list used in FoFCou.
 Integral accuracy reduced to 1.0D-05 until final iterations.

 Cycle   1  Pass 0  IDiag  1:
 E= -164.062026284321    
 DIIS: error= 2.96D-03 at cycle   1 NSaved=   1.
 NSaved= 1 IEnMin= 1 EnMin= -164.062026284321     IErMin= 1 ErrMin= 2.96D-03
 ErrMax= 2.96D-03  0.00D+00 EMaxC= 1.00D-01 BMatC= 6.36D-04 BMatP= 6.36D-04
 IDIUse=3 WtCom= 9.70D-01 WtEn= 2.96D-02
 Coeff-Com:  0.100D+01
 Coeff-En:   0.100D+01
 Coeff:      0.100D+01
 Gap=     0.757 Goal=   None    Shift=    0.000
 GapD=    0.757 DampG=2.000 DampE=1.000 DampFc=2.0000 IDamp=-1.
 RMSDP=2.49D-04 MaxDP=3.85D-03              OVMax= 1.33D-02

 Cycle   2  Pass 0  IDiag  1:
 E= -164.063258706330     Delta-E=       -0.001232422009 Rises=F Damp=F
 DIIS: error= 1.01D-03 at cycle   2 NSaved=   2.
 NSaved= 2 IEnMin= 2 EnMin= -164.063258706330     IErMin= 2 ErrMin= 1.01D-03
 ErrMax= 1.01D-03  0.00D+00 EMaxC= 1.00D-01 BMatC= 3.93D-05 BMatP= 6.36D-04
 IDIUse=3 WtCom= 9.90D-01 WtEn= 1.01D-02
 Coeff-Com: -0.137D+00 0.114D+01
 Coeff-En:   0.000D+00 0.100D+01
 Coeff:     -0.135D+00 0.114D+01
 Gap=     0.408 Goal=   None    Shift=    0.000
 RMSDP=8.20D-05 MaxDP=1.04D-03 DE=-1.23D-03 OVMax= 6.01D-03

 Cycle   3  Pass 0  IDiag  1:
 E= -164.063363598190     Delta-E=       -0.000104891860 Rises=F Damp=F
 DIIS: error= 4.87D-04 at cycle   3 NSaved=   3.
 NSaved= 3 IEnMin= 3 EnMin= -164.063363598190     IErMin= 3 ErrMin= 4.87D-04
 ErrMax= 4.87D-04  0.00D+00 EMaxC= 1.00D-01 BMatC= 1.52D-05 BMatP= 3.93D-05
 IDIUse=3 WtCom= 9.95D-01 WtEn= 4.87D-03
 Coeff-Com: -0.954D-01 0.448D+00 0.648D+00
 Coeff-En:   0.000D+00 0.000D+00 0.100D+01
 Coeff:     -0.950D-01 0.445D+00 0.650D+00
 Gap=     0.408 Goal=   None    Shift=    0.000
 RMSDP=2.65D-05 MaxDP=6.51D-04 DE=-1.05D-04 OVMax= 1.96D-03

 Cycle   4  Pass 0  IDiag  1:
 E= -164.063379664495     Delta-E=       -0.000016066306 Rises=F Damp=F
 DIIS: error= 1.53D-04 at cycle   4 NSaved=   4.
 NSaved= 4 IEnMin= 4 EnMin= -164.063379664495     IErMin= 4 ErrMin= 1.53D-04
 ErrMax= 1.53D-04  0.00D+00 EMaxC= 1.00D-01 BMatC= 1.84D-06 BMatP= 1.52D-05
 IDIUse=3 WtCom= 9.98D-01 WtEn= 1.53D-03
 Coeff-Com: -0.211D-02-0.752D-01 0.208D+00 0.870D+00
 Coeff-En:   0.000D+00 0.000D+00 0.000D+00 0.100D+01
 Coeff:     -0.211D-02-0.751D-01 0.207D+00 0.870D+00
 Gap=     0.408 Goal=   None    Shift=    0.000
 RMSDP=1.63D-05 MaxDP=3.63D-04 DE=-1.61D-05 OVMax= 1.29D-03

 Cycle   5  Pass 0  IDiag  1:
 E= -164.063383151860     Delta-E=       -0.000003487365 Rises=F Damp=F
 DIIS: error= 4.73D-05 at cycle   5 NSaved=   5.
 NSaved= 5 IEnMin= 5 EnMin= -164.063383151860     IErMin= 5 ErrMin= 4.73D-05
 ErrMax= 4.73D-05  0.00D+00 EMaxC= 1.00D-01 BMatC= 9.52D-08 BMatP= 1.84D-06
 IDIUse=1 WtCom= 1.00D+00 WtEn= 0.00D+00
 Coeff-Com:  0.888D-02-0.535D-01-0.505D-01 0.864D-01 0.101D+01
 Coeff:      0.888D-02-0.535D-01-0.505D-01 0.864D-01 0.101D+01
 Gap=     0.408 Goal=   None    Shift=    0.000
 RMSDP=6.62D-06 MaxDP=1.31D-04 DE=-3.49D-06 OVMax= 5.95D-04

 Initial convergence to 1.0D-05 achieved.  Increase integral accuracy.
 Cycle   6  Pass 1  IDiag  1:
 E= -164.063429322334     Delta-E=       -0.000046170474 Rises=F Damp=F
 DIIS: error= 3.57D-05 at cycle   1 NSaved=   1.
 NSaved= 1 IEnMin= 1 EnMin= -164.063429322334     IErMin= 1 ErrMin= 3.57D-05
 ErrMax= 3.57D-05  0.00D+00 EMaxC= 1.00D-01 BMatC= 1.93D-07 BMatP= 1.93D-07
 IDIUse=1 WtCom= 1.00D+00 WtEn= 0.00D+00
 Coeff-Com:  0.100D+01
 Coeff:      0.100D+01
 Gap=     0.408 Goal=   None    Shift=    0.000
 RMSDP=6.62D-06 MaxDP=1.31D-04 DE=-4.62D-05 OVMax= 2.54D-04

 Cycle   7  Pass 1  IDiag  1:
 E= -164.063429630369     Delta-E=       -0.000000308035 Rises=F Damp=F
 DIIS: error= 1.22D-05 at cycle   2 NSaved=   2.
 NSaved= 2 IEnMin= 2 EnMin= -164.063429630369     IErMin= 2 ErrMin= 1.22D-05
 ErrMax= 1.22D-05  0.00D+00 EMaxC= 1.00D-01 BMatC= 9.40D-09 BMatP= 1.93D-07
 IDIUse=1 WtCom= 1.00D+00 WtEn= 0.00D+00
 Coeff-Com: -0.126D+00 0.113D+01
 Coeff:     -0.126D+00 0.113D+01
 Gap=     0.408 Goal=   None    Shift=    0.000
 RMSDP=1.49D-06 MaxDP=1.92D-05 DE=-3.08D-07 OVMax= 1.28D-04

 Cycle   8  Pass 1  IDiag  1:
 E= -164.063429658486     Delta-E=       -0.000000028117 Rises=F Damp=F
 DIIS: error= 6.62D-06 at cycle   3 NSaved=   3.
 NSaved= 3 IEnMin= 3 EnMin= -164.063429658486     IErMin= 3 ErrMin= 6.62D-06
 ErrMax= 6.62D-06  0.00D+00 EMaxC= 1.00D-01 BMatC= 1.63D-09 BMatP= 9.40D-09
 IDIUse=1 WtCom= 1.00D+00 WtEn= 0.00D+00
 Coeff-Com: -0.498D-01 0.225D+00 0.825D+00
 Coeff:     -0.498D-01 0.225D+00 0.825D+00
 Gap=     0.408 Goal=   None    Shift=    0.000
 RMSDP=4.61D-07 MaxDP=7.47D-06 DE=-2.81D-08 OVMax= 4.67D-05

 Cycle   9  Pass 1  IDiag  1:
 E= -164.063429662120     Delta-E=       -0.000000003634 Rises=F Damp=F
 DIIS: error= 3.20D-06 at cycle   4 NSaved=   4.
 NSaved= 4 IEnMin= 4 EnMin= -164.063429662120     IErMin= 4 ErrMin= 3.20D-06
 ErrMax= 3.20D-06  0.00D+00 EMaxC= 1.00D-01 BMatC= 6.42D-10 BMatP= 1.63D-09
 IDIUse=1 WtCom= 1.00D+00 WtEn= 0.00D+00
 Coeff-Com:  0.248D-02-0.116D+00 0.348D+00 0.765D+00
 Coeff:      0.248D-02-0.116D+00 0.348D+00 0.765D+00
 Gap=     0.408 Goal=   None    Shift=    0.000
 RMSDP=2.91D-07 MaxDP=4.81D-06 DE=-3.63D-09 OVMax= 2.89D-05

 Cycle  10  Pass 1  IDiag  1:
 E= -164.063429663423     Delta-E=       -0.000000001303 Rises=F Damp=F
 DIIS: error= 1.28D-06 at cycle   5 NSaved=   5.
 NSaved= 5 IEnMin= 5 EnMin= -164.063429663423     IErMin= 5 ErrMin= 1.28D-06
 ErrMax= 1.28D-06  0.00D+00 EMaxC= 1.00D-01 BMatC= 5.89D-11 BMatP= 6.42D-10
 IDIUse=1 WtCom= 1.00D+00 WtEn= 0.00D+00
 Coeff-Com:  0.869D-02-0.738D-01-0.577D-01 0.169D+00 0.954D+00
 Coeff:      0.869D-02-0.738D-01-0.577D-01 0.169D+00 0.954D+00
 Gap=     0.408 Goal=   None    Shift=    0.000
 RMSDP=1.61D-07 MaxDP=2.67D-06 DE=-1.30D-09 OVMax= 1.62D-05

 Cycle  11  Pass 1  IDiag  1:
 E= -164.063429663652     Delta-E=       -0.000000000229 Rises=F Damp=F
 DIIS: error= 3.26D-07 at cycle   6 NSaved=   6.
 NSaved= 6 IEnMin= 6 EnMin= -164.063429663652     IErMin= 6 ErrMin= 3.26D-07
 ErrMax= 3.26D-07  0.00D+00 EMaxC= 1.00D-01 BMatC= 4.40D-12 BMatP= 5.89D-11
 IDIUse=1 WtCom= 1.00D+00 WtEn= 0.00D+00
 Coeff-Com:  0.118D-02 0.211D-02-0.498D-01-0.647D-01 0.163D+00 0.949D+00
 Coeff:      0.118D-02 0.211D-02-0.498D-01-0.647D-01 0.163D+00 0.949D+00
 Gap=     0.408 Goal=   None    Shift=    0.000
 RMSDP=4.48D-08 MaxDP=7.44D-07 DE=-2.29D-10 OVMax= 4.67D-06

 Cycle  12  Pass 1  IDiag  1:
 E= -164.063429663668     Delta-E=       -0.000000000016 Rises=F Damp=F
 DIIS: error= 7.88D-08 at cycle   7 NSaved=   7.
 NSaved= 7 IEnMin= 7 EnMin= -164.063429663668     IErMin= 7 ErrMin= 7.88D-08
 ErrMax= 7.88D-08  0.00D+00 EMaxC= 1.00D-01 BMatC= 4.17D-13 BMatP= 4.40D-12
 IDIUse=1 WtCom= 1.00D+00 WtEn= 0.00D+00
 Coeff-Com: -0.188D-03 0.465D-02-0.843D-02-0.259D-01-0.241D-01 0.238D+00
 Coeff-Com:  0.816D+00
 Coeff:     -0.188D-03 0.465D-02-0.843D-02-0.259D-01-0.241D-01 0.238D+00
 Coeff:      0.816D+00
 Gap=     0.408 Goal=   None    Shift=    0.000
 RMSDP=8.91D-09 MaxDP=1.35D-07 DE=-1.61D-11 OVMax= 7.33D-07

 SCF Done:  E(RwB97XD) =  -164.063429664     A.U. after   12 cycles
            NFock= 12  Conv=0.89D-08     -V/T= 2.0046
 KE= 1.633152261356D+02 PE=-6.079594896867D+02 EE= 1.672467536894D+02
 Leave Link  502 at Thu Mar  9 15:18:28 2017, MaxMem=   846069760 cpu:        58.1
 (Enter /share/apps/g09RelE.01/g09/l701.exe)
 Compute integral first derivatives.
 ... and contract with generalized density number  0.
 R6Disp: Adding Grimme-D2 dispersion energy 1st derivatives to the gradient.
 Leave Link  701 at Thu Mar  9 15:18:28 2017, MaxMem=   846069760 cpu:         0.8
 (Enter /share/apps/g09RelE.01/g09/l702.exe)
 L702 exits ... SP integral derivatives will be done elsewhere.
 Leave Link  702 at Thu Mar  9 15:18:28 2017, MaxMem=   846069760 cpu:         0.1
 (Enter /share/apps/g09RelE.01/g09/l703.exe)
 Compute integral first derivatives, UseDBF=F ICtDFT=           0.
 Integral derivatives from FoFJK, PRISM(SPDF).
 Calling FoFJK, ICntrl=      2127 FMM=F ISym2X=1 I1Cent= 0 IOpClX= 0 NMat=1 NMatS=1 NMatT=0.
 FoFJK:  IHMeth= 1 ICntrl=    2127 DoSepK=T KAlg= 0 I1Cent=   0 FoldK=F
 IRaf=         1 NMat=   1 IRICut=       1 DoRegI=T DoRafI=F ISym2E= 1.
 FoFCou: FMM=F IPFlag=           0 FMFlag=      100000 FMFlg1=         800
         NFxFlg=           0 DoJE=F BraDBF=F KetDBF=F FulRan=T
         wScrn=  0.000000 ICntrl=    2527 IOpCl=  0 I1Cent=           0 NGrid=           0
         NMat0=    1 NMatS0=      1 NMatT0=    0 NMatD0=    1 NMtDS0=    0 NMtDT0=    0
 Petite list used in FoFCou.
 Leave Link  703 at Thu Mar  9 15:18:33 2017, MaxMem=   846069760 cpu:        18.9
 (Enter /share/apps/g09RelE.01/g09/l716.exe)
 Dipole        =-1.32825806D-02-3.44305574D-02 0.00000000D+00
 ***** Axes restored to original set *****
 -------------------------------------------------------------------
 Center     Atomic                   Forces (Hartrees/Bohr)
 Number     Number              X              Y              Z
 -------------------------------------------------------------------
      1        5           0.006209656   -0.000310339   -0.000000000
      2        7           0.002166045   -0.004011472   -0.000000000
      3        7          -0.001320347    0.004253968    0.000000000
      4        5          -0.006678371   -0.004911582    0.000000000
      5        1          -0.000784146   -0.000445670    0.000380839
      6        1          -0.000784146   -0.000445670   -0.000380839
      7        1           0.001089419    0.002313719   -0.000053077
      8        1           0.001089419    0.002313719    0.000053077
      9        1          -0.000241879    0.000583612    0.000056537
     10        1          -0.000241879    0.000583612   -0.000056537
     11        1          -0.000251887    0.000038051   -0.000110147
     12        1          -0.000251887    0.000038051    0.000110147
 -------------------------------------------------------------------
 Cartesian Forces:  Max     0.006678371 RMS     0.002134149
 Leave Link  716 at Thu Mar  9 15:18:33 2017, MaxMem=   846069760 cpu:         0.1
 (Enter /share/apps/g09RelE.01/g09/l103.exe)

 GradGradGradGradGradGradGradGradGradGradGradGradGradGradGradGradGradGrad
 Berny optimization.
 FormGI is forming the generalized inverse of G from B-inverse, IUseBI=4.
 Internal  Forces:  Max     0.004627459 RMS     0.000899916
 Search for a local minimum.
 Step number   1 out of a maximum of   82 on scan point     2 out of     2
 All quantities printed in internal units (Hartrees-Bohrs-Radians)
 RMS Force = .83229D-03 SwitMx=.10000D-02 MixMth= 1
 Mixed Optimization -- RFO/linear search
 Second derivative matrix not updated -- first step.
 ITU=  0
     Eigenvalues ---    0.00546   0.02617   0.03649   0.03688   0.04160
     Eigenvalues ---    0.04388   0.04676   0.04854   0.06649   0.07211
     Eigenvalues ---    0.07568   0.07855   0.07880   0.07986   0.08090
     Eigenvalues ---    0.08785   0.08866   0.21776   0.24899   0.24899
     Eigenvalues ---    0.25066   0.25066   0.37175   0.39695   0.46584
     Eigenvalues ---    0.46584   0.46692   0.466921000.000001000.00000
     Eigenvalues --- 1000.000001000.000001000.000001000.000001000.00000
     Eigenvalues --- 1000.000001000.000001000.000001000.000001000.00000
     Eigenvalues --- 1000.000001000.000001000.000001000.000001000.00000
     Eigenvalues --- 1000.000001000.000001000.000001000.000001000.00000
     Eigenvalues --- 1000.000001000.000001000.000001000.000001000.00000
     Eigenvalues --- 1000.000001000.000001000.000001000.000001000.00000
     Eigenvalues --- 1000.000001000.000001000.000001000.000001000.00000
     Eigenvalues --- 1000.000001000.000001000.000001000.000001000.00000
     Eigenvalues --- 1000.000001000.00000
 RFO step:  Lambda=-3.84300771D-04 EMin= 5.46370487D-03
 Linear search not attempted -- first point.
 Iteration  1 RMS(Cart)=  0.00838267 RMS(Int)=  0.00015236
 Iteration  2 RMS(Cart)=  0.00010492 RMS(Int)=  0.00010488
 Iteration  3 RMS(Cart)=  0.00000001 RMS(Int)=  0.00010488
 Iteration  1 RMS(Cart)=  0.00000231 RMS(Int)=  0.00000099
 Iteration  2 RMS(Cart)=  0.00000066 RMS(Int)=  0.00000108
 ITry= 1 IFail=0 DXMaxC= 3.60D-02 DCOld= 1.00D+10 DXMaxT= 3.00D-01 DXLimC= 3.00D+00 Rises=F
 ClnCor:  largest displacement from symmetrization is 3.15D-10 for atom     8.
 Variable       Old X    -DE/DX   Delta X   Delta X   Delta X     New X
                                 (Linear)    (Quad)   (Total)
    R1        4.35194   0.00271   0.00000   0.00000  -0.00000   4.35194
    R2        2.72224  -0.00463   0.00000  -0.01231  -0.01230   2.70994
    R3        2.25748   0.00020   0.00000   0.00081   0.00081   2.25829
    R4        2.25748   0.00020   0.00000   0.00081   0.00081   2.25829
    R5        2.71757  -0.00335   0.00000  -0.00775  -0.00776   2.70981
    R6        1.90062   0.00013   0.00000   0.00027   0.00027   1.90089
    R7        1.90062   0.00013   0.00000   0.00027   0.00027   1.90089
    R8        4.35195   0.00147   0.00000   0.00000   0.00000   4.35195
[...]
 ! A17   A(4,3,6)              104.1932         -DE/DX =   -0.0001              !
 ! A18   A(5,3,6)              113.2381         -DE/DX =    0.0                 !
 ! A19   A(2,4,3)               98.0729         -DE/DX =    0.0002              !
 ! A20   A(2,4,7)              118.5275         -DE/DX =   -0.0001              !
 ! A21   A(2,4,8)              118.5275         -DE/DX =   -0.0001              !
 ! A22   A(3,4,7)               92.8363         -DE/DX =    0.0                 !
 ! A23   A(3,4,8)               92.8363         -DE/DX =    0.0                 !
 ! A24   A(7,4,8)              121.0724         -DE/DX =    0.0                 !
 ! D1    D(3,1,2,4)              0.0            -DE/DX =    0.0                 !
 ! D2    D(3,1,2,9)           -120.6753         -DE/DX =    0.0                 !
 ! D3    D(3,1,2,10)           120.6753         -DE/DX =    0.0                 !
 ! D4    D(11,1,2,4)           119.3009         -DE/DX =    0.0                 !
 ! D5    D(11,1,2,9)            -1.3744         -DE/DX =    0.0                 !
 ! D6    D(11,1,2,10)         -120.0237         -DE/DX =    0.0                 !
 ! D7    D(12,1,2,4)          -119.3009         -DE/DX =    0.0                 !
 ! D8    D(12,1,2,9)           120.0237         -DE/DX =    0.0                 !
 ! D9    D(12,1,2,10)            1.3744         -DE/DX =    0.0                 !
 ! D10   D(2,1,3,4)              0.0            -DE/DX =    0.0                 !
 ! D11   D(2,1,3,5)           -101.7447         -DE/DX =    0.0003              !
 ! D12   D(2,1,3,6)            101.7447         -DE/DX =   -0.0003              !
 ! D13   D(11,1,3,4)           -97.9059         -DE/DX =    0.0                 !
 ! D14   D(11,1,3,5)           160.3494         -DE/DX =    0.0003              !
 ! D15   D(11,1,3,6)             3.8388         -DE/DX =   -0.0003              !
 ! D16   D(12,1,3,4)            97.9059         -DE/DX =    0.0                 !
 ! D17   D(12,1,3,5)            -3.8388         -DE/DX =    0.0003              !
 ! D18   D(12,1,3,6)          -160.3494         -DE/DX =   -0.0003              !
 ! D19   D(1,2,4,3)              0.0            -DE/DX =    0.0                 !
 ! D20   D(1,2,4,7)             97.6999         -DE/DX =    0.0001              !
 ! D21   D(1,2,4,8)            -97.6999         -DE/DX =   -0.0001              !
 ! D22   D(9,2,4,3)            101.3245         -DE/DX =   -0.0002              !
 ! D23   D(9,2,4,7)           -160.9756         -DE/DX =   -0.0001              !
 ! D24   D(9,2,4,8)              3.6246         -DE/DX =   -0.0003              !
 ! D25   D(10,2,4,3)          -101.3245         -DE/DX =    0.0002              !
 ! D26   D(10,2,4,7)            -3.6246         -DE/DX =    0.0003              !
 ! D27   D(10,2,4,8)           160.9756         -DE/DX =    0.0001              !
 ! D28   D(1,3,4,2)              0.0            -DE/DX =    0.0                 !
 ! D29   D(1,3,4,7)           -119.3392         -DE/DX =    0.0                 !
 ! D30   D(1,3,4,8)            119.3392         -DE/DX =    0.0                 !
 ! D31   D(5,3,4,2)            120.5345         -DE/DX =    0.0                 !
 ! D32   D(5,3,4,7)              1.1953         -DE/DX =    0.0001              !
 ! D33   D(5,3,4,8)           -120.1263         -DE/DX =    0.0                 !
 ! D34   D(6,3,4,2)           -120.5345         -DE/DX =    0.0                 !
 ! D35   D(6,3,4,7)            120.1263         -DE/DX =    0.0                 !
 ! D36   D(6,3,4,8)             -1.1953         -DE/DX =   -0.0001              !
 --------------------------------------------------------------------------------
 Lowest energy point so far.  Saving SCF results.
 GradGradGradGradGradGradGradGradGradGradGradGradGradGradGradGradGradGrad

 Summary of Optimized Potential Surface Scan
                           1         2
     Eigenvalues --  -164.06302-164.06375
           R1           2.30295   2.30295
           R2           1.43781   1.43054
           R3           1.19457   1.19553
           R4           1.19457   1.19553
           R5           1.44082   1.43028
           R6           1.00575   1.00601
           R7           1.00575   1.00601
           R8           2.20295   2.30295
           R9           1.00638   1.00603
           R10          1.00638   1.00603
           R11          1.19682   1.19524
           R12          1.19682   1.19524
           A1          95.84087  98.06501
           A2          94.09984  93.03172
           A3          94.09984  93.03172
           A4         118.38097 118.45430
           A5         118.38097 118.45430
           A6         121.27069 121.11303
           A7          80.15550  81.93361
           A8         105.17037 103.83472
           A9         105.17037 103.83472
           A10        121.45668 121.60263
           A11        121.45668 121.60263
           A12        113.20716 113.25685
           A13         83.87970  81.92851
           A14        121.17405 121.47298
           A15        121.17405 121.47298
           A16        104.22574 104.19322
           A17        104.22574 104.19322
           A18        112.99445 113.23808
           A19        100.12393  98.07288
           A20        118.08867 118.52746
           A21        118.08867 118.52746
           A22         94.18785  92.83633
           A23         94.18785  92.83633
           A24        120.43337 121.07235
           D1           0.00000   0.00000
           D2        -120.11424-120.67534
           D3         120.11424 120.67534
           D4         119.10233 119.30091
           D5          -1.01191  -1.37443
           D6        -120.78342-120.02375
           D7        -119.10233-119.30091
           D8         120.78342 120.02375
           D9           1.01191   1.37443
           D10          0.00000   0.00000
           D11       -102.94355-101.74467
           D12        102.94355 101.74467
           D13        -97.87161 -97.90589
           D14        159.18484 160.34944
           D15          5.07194   3.83878
           D16         97.87161  97.90589
           D17         -5.07194  -3.83878
           D18       -159.18484-160.34944
           D19          0.00000   0.00000
           D20        100.33371  97.69992
           D21       -100.33371 -97.69992
           D22        101.84126 101.32450
           D23       -157.82503-160.97558
           D24          1.50756   3.62459
           D25       -101.84126-101.32450
           D26         -1.50756  -3.62459
           D27        157.82503 160.97558
           D28          0.00000   0.00000
           D29       -119.51420-119.33919
           D30        119.51420 119.33919
           D31        120.65666 120.53452
           D32          1.14246   1.19534
           D33       -119.82915-120.12629
           D34       -120.65666-120.53452
           D35        119.82915 120.12629
           D36         -1.14246  -1.19534
 Largest change from initial coordinates is atom    5       0.063 Angstoms.
 Leave Link  103 at Thu Mar  9 15:19:16 2017, MaxMem=   846069760 cpu:         0.1
 (Enter /share/apps/g09RelE.01/g09/l202.exe)
                          Input orientation:                          
 ---------------------------------------------------------------------
 Center     Atomic      Atomic             Coordinates (Angstroms)
 Number     Number       Type             X           Y           Z
 ---------------------------------------------------------------------
      1          5           0        0.034297    1.264988    0.000000
      2          7           0       -1.301967   -0.610637    0.000000
      3          7           0        1.304326    0.606599    0.000000
      4          5           0       -0.032152   -1.268877    0.000000
      5          1           0        1.851020    0.519917    0.840070
      6          1           0        1.851020    0.519917   -0.840070
      7          1           0        0.409876   -1.656495    1.040658
      8          1           0        0.409876   -1.656495   -1.040658
      9          1           0       -1.847426   -0.517397   -0.840137
     10          1           0       -1.847426   -0.517397    0.840137
     11          1           0       -0.404868    1.655501   -1.041113
     12          1           0       -0.404868    1.655501    1.041113
 ---------------------------------------------------------------------
                    Distance matrix (angstroms):
                    1          2          3          4          5
     1  B    0.000000
     2  N    2.302949   0.000000
     3  N    1.430541   2.876530   0.000000
     4  B    2.534737   1.430283   2.302951   0.000000
     5  H    2.135727   3.453288   1.006034   2.729805   0.000000
     6  H    2.135727   3.453288   1.006034   2.729805   1.680139
     7  H    3.123954   2.259910   2.646621   1.195243   2.617995
     8  H    3.123954   2.259910   2.646621   1.195243   3.217266
     9  H    2.724630   1.006006   3.450034   2.136766   4.192566
    10  H    2.724630   1.006006   3.450034   2.136766   3.841161
    11  H    1.195526   2.650299   2.259525   3.126471   3.149194
    12  H    1.195526   2.650299   2.259525   3.126471   2.533574
                    6          7          8          9         10
     6  H    0.000000
     7  H    3.217266   0.000000
     8  H    2.617995   2.081315   0.000000
     9  H    3.841161   3.151245   2.536368   0.000000
    10  H    4.192566   2.536368   3.151245   1.680273   0.000000
    11  H    2.533574   3.995859   3.410737   2.615884   3.215830
    12  H    3.149194   3.410737   3.995859   3.215830   2.615884
                   11         12
    11  H    0.000000
    12  H    2.082226   0.000000
 Stoichiometry    B2H8N2
 Framework group  CS[SG(B2N2),X(H8)]
 Deg. of freedom    17
 Full point group                 CS      NOp   2
 RotChk:  IX=3 Diff= 2.22D-16
 Largest Abelian subgroup         CS      NOp   2
 Largest concise Abelian subgroup CS      NOp   2
                         Standard orientation:                         
 ---------------------------------------------------------------------
 Center     Atomic      Atomic             Coordinates (Angstroms)
 Number     Number       Type             X           Y           Z
 ---------------------------------------------------------------------
      1          5           0        0.000000   -1.266811    0.000000
      2          7           0        1.287090    0.642894    0.000000
      3          7           0       -1.286703   -0.641636    0.000000
      4          5           0        0.000604    1.267925    0.000000
      5          1           0       -1.835464   -0.569185    0.840070
      6          1           0       -1.835464   -0.569185   -0.840070
      7          1           0       -0.451345    1.643929    1.040658
      8          1           0       -0.451345    1.643929   -1.040658
      9          1           0        1.834786    0.563855   -0.840137
     10          1           0        1.834786    0.563855    0.840137
     11          1           0        0.449161   -1.645784   -1.041113
     12          1           0        0.449161   -1.645784    1.041113
 ---------------------------------------------------------------------
 Rotational constants (GHZ):     11.8122409      5.5210923      4.2151916
 Leave Link  202 at Thu Mar  9 15:19:16 2017, MaxMem=   846069760 cpu:         0.0
 (Enter /share/apps/g09RelE.01/g09/l601.exe)
 Copying SCF densities to generalized density rwf, IOpCl= 0 IROHF=0.

 **********************************************************************

            Population analysis using the SCF density.

 **********************************************************************

 Orbital symmetries:
       Occupied  (A') (A') (A') (A') (A') (A') (A') (A') (A") (A")
                 (A') (A') (A') (A") (A") (A')
       Virtual   (A') (A') (A') (A") (A') (A") (A') (A') (A") (A')
                 (A") (A') (A") (A') (A') (A") (A') (A') (A') (A")
                 (A") (A') (A') (A') (A') (A') (A") (A") (A') (A")
                 (A') (A") (A') (A') (A') (A") (A') (A') (A") (A')
                 (A") (A') (A") (A') (A") (A") (A') (A') (A') (A")
                 (A") (A") (A') (A") (A') (A') (A") (A') (A") (A')
                 (A') (A") (A") (A') (A') (A') (A") (A') (A') (A")
                 (A') (A') (A') (A') (A") (A") (A') (A") (A") (A')
                 (A') (A") (A") (A') (A') (A') (A') (A") (A') (A")
                 (A') (A') (A") (A") (A') (A') (A') (A') (A") (A")
                 (A') (A') (A') (A')
 The electronic state is 1-A'.
 Alpha  occ. eigenvalues --  -14.41733 -14.41707  -6.84119  -6.84106  -0.97005
 Alpha  occ. eigenvalues --   -0.95385  -0.62211  -0.60135  -0.60012  -0.58543
 Alpha  occ. eigenvalues --   -0.47790  -0.47566  -0.42256  -0.40123  -0.39717
 Alpha  occ. eigenvalues --   -0.32514
 Alpha virt. eigenvalues --    0.08333   0.11058   0.14429   0.15335   0.15948
 Alpha virt. eigenvalues --    0.19457   0.20604   0.20878   0.23720   0.24603
 Alpha virt. eigenvalues --    0.27115   0.28099   0.34154   0.34350   0.39178
 Alpha virt. eigenvalues --    0.40299   0.46099   0.47590   0.50460   0.52666
 Alpha virt. eigenvalues --    0.55027   0.55492   0.55578   0.60003   0.63096
 Alpha virt. eigenvalues --    0.65997   0.66606   0.70072   0.78140   0.78482
 Alpha virt. eigenvalues --    0.78636   0.81284   0.83233   0.91223   0.94357
 Alpha virt. eigenvalues --    1.01108   1.02295   1.03397   1.03729   1.14358
 Alpha virt. eigenvalues --    1.21597   1.25615   1.26383   1.30763   1.32443
 Alpha virt. eigenvalues --    1.34664   1.39515   1.46589   1.64087   1.66510
 Alpha virt. eigenvalues --    1.68940   1.70543   1.72811   1.74567   1.75595
 Alpha virt. eigenvalues --    1.77984   1.82586   1.82846   1.89440   1.94718
 Alpha virt. eigenvalues --    2.00339   2.02808   2.02924   2.04937   2.09729
 Alpha virt. eigenvalues --    2.11983   2.15569   2.17308   2.19419   2.20202
 Alpha virt. eigenvalues --    2.30382   2.31825   2.49591   2.52793   2.53204
 Alpha virt. eigenvalues --    2.56908   2.60991   2.61091   2.62179   2.63656
 Alpha virt. eigenvalues --    2.66673   2.76307   2.76519   2.81146   2.81629
 Alpha virt. eigenvalues --    2.92076   2.93588   2.99380   3.04908   3.06243
 Alpha virt. eigenvalues --    3.09680   3.20367   3.31739   3.32209   3.96778
 Alpha virt. eigenvalues --    4.02845   4.69777   4.82146   4.86842   4.87042
 Alpha virt. eigenvalues --   14.76462  14.79045  35.72647  35.75775
          Condensed to atoms (all electrons):
               1          2          3          4          5          6
     1  B    3.581321   0.054759   0.429361  -0.005671  -0.034275  -0.034275
     2  N    0.054759   6.379763  -0.040321   0.429675   0.001004   0.001004
     3  N    0.429361  -0.040321   6.380571   0.054202   0.376176   0.376176
     4  B   -0.005671   0.429675   0.054202   3.579178  -0.002430  -0.002430
     5  H   -0.034275   0.001004   0.376176  -0.002430   0.465065  -0.034108
     6  H   -0.034275   0.001004   0.376176  -0.002430  -0.034108   0.465065
     7  H   -0.004452  -0.022731  -0.012613   0.436509  -0.001680   0.000953
     8  H   -0.004452  -0.022731  -0.012613   0.436509   0.000953  -0.001680
     9  H   -0.002476   0.376143   0.000995  -0.034184  -0.000086   0.000005
    10  H   -0.002476   0.376143   0.000995  -0.034184   0.000005  -0.000086
    11  H    0.436505  -0.012617  -0.022860  -0.004424   0.006098  -0.010328
    12  H    0.436505  -0.012617  -0.022860  -0.004424  -0.010328   0.006098
               7          8          9         10         11         12
     1  B   -0.004452  -0.004452  -0.002476  -0.002476   0.436505   0.436505
     2  N   -0.022731  -0.022731   0.376143   0.376143  -0.012617  -0.012617
     3  N   -0.012613  -0.012613   0.000995   0.000995  -0.022860  -0.022860
     4  B    0.436509   0.436509  -0.034184  -0.034184  -0.004424  -0.004424
     5  H   -0.001680   0.000953  -0.000086   0.000005   0.006098  -0.010328
     6  H    0.000953  -0.001680   0.000005  -0.000086  -0.010328   0.006098
     7  H    0.689420  -0.026387   0.006077  -0.010264  -0.000475   0.001178
     8  H   -0.026387   0.689420  -0.010264   0.006077   0.001178  -0.000475
     9  H    0.006077  -0.010264   0.464824  -0.034115  -0.001697   0.000950
    10  H   -0.010264   0.006077  -0.034115   0.464824   0.000950  -0.001697
    11  H   -0.000475   0.001178  -0.001697   0.000950   0.689090  -0.026213
    12  H    0.001178  -0.000475   0.000950  -0.001697  -0.026213   0.689090
 Mulliken charges:
               1
     1  B    0.149626
     2  N   -0.507475
     3  N   -0.507209
     4  B    0.151674
     5  H    0.233606
     6  H    0.233606
     7  H   -0.055535
     8  H   -0.055535
     9  H    0.233829
    10  H    0.233829
    11  H   -0.055207
    12  H   -0.055207
 Sum of Mulliken charges =  -0.00000
 Mulliken charges with hydrogens summed into heavy atoms:
               1
     1  B    0.039212
     2  N   -0.039818
     3  N   -0.039998
     4  B    0.040604
 Electronic spatial extent (au):  <R**2>=            340.3183
 Charge=             -0.0000 electrons
 Dipole moment (field-independent basis, Debye):
    X=              0.0018    Y=             -0.0111    Z=              0.0000  Tot=              0.0112
 Quadrupole moment (field-independent basis, Debye-Ang):
   XX=            -20.9297   YY=            -32.9098   ZZ=            -26.5257
   XY=              2.6456   XZ=             -0.0000   YZ=              0.0000
 Traceless Quadrupole moment (field-independent basis, Debye-Ang):
   XX=              5.8587   YY=             -6.1214   ZZ=              0.2627
   XY=              2.6456   XZ=             -0.0000   YZ=              0.0000
 Octapole moment (field-independent basis, Debye-Ang**2):
  XXX=             -0.0236  YYY=              0.0092  ZZZ=              0.0000  XYY=             -0.0423
  XXY=             -0.0749  XXZ=              0.0000  XZZ=             -0.0015  YZZ=             -0.0141
  YYZ=             -0.0000  XYZ=             -0.0000
 Hexadecapole moment (field-independent basis, Debye-Ang**3):
 XXXX=           -152.5369 YYYY=           -248.8601 ZZZZ=            -66.0114 XXXY=            -16.7737
 XXXZ=             -0.0000 YYYX=            -22.2026 YYYZ=             -0.0000 ZZZX=             -0.0000
 ZZZY=              0.0000 XXYY=            -75.7000 XXZZ=            -28.8356 YYZZ=            -55.4680
 XXYZ=             -0.0000 YYXZ=             -0.0000 ZZXY=             -3.1232
 N-N= 1.136718526431D+02 E-N=-6.086693033028D+02  KE= 1.633547818675D+02
 Symmetry A'   KE= 1.549726745177D+02
 Symmetry A"   KE= 8.382107349842D+00
 No NMR shielding tensors so no spin-rotation constants.
 Leave Link  601 at Thu Mar  9 15:19:16 2017, MaxMem=   846069760 cpu:         0.8
 (Enter /share/apps/g09RelE.01/g09/l9999.exe)
 1\1\GINC-COMPUTE-0-0\Scan\RwB97XD\6-311G(d,p)\B2H8N2\BERTA\09-Mar-2017
 \0\\#P RwB97XD/6-311G(d,p)int(grid=ultrafine) opt(modred,loose)\\AB2-m
 ult-scan7_2.gjf\\0,1\B,0.0342969992,1.2649884412,0.\N,-1.3019672135,-0
 .6106373374,0.\N,1.3043255315,0.6065993662,0.\B,-0.0321521463,-1.26887
 6921,0.\H,1.8510195483,0.519917268,0.8400696\H,1.8510195483,0.51991726
 8,-0.8400695999\H,0.409876341,-1.6564946074,1.04065773\H,0.409876341,-
 1.6564946074,-1.0406577299\H,-1.8474256517,-0.5173971236,-0.8401367035
 \H,-1.8474256517,-0.5173971236,0.8401367035\H,-0.404867823,1.655501188
 4,-1.0411127862\H,-0.404867823,1.6555011884,1.0411127863\\Version=ES64
 L-G09RevE.01\State=1-A'\HF=-164.0630237,-164.0637523\RMSD=5.712e-09,4.
 897e-09\PG=CS [SG(B2N2),X(H8)]\\@


 THE POLHOLDE ROLLS WITHOUT SLIPPING ON THE HERPOLHOLDE LYING IN
 THE INVARIABLE PLANE.
 H.GOLDSTEIN, "CLASSICAL MECHANICS", PG 161
 Job cpu time:       0 days  0 hours  5 minutes 45.4 seconds.
 File lengths (MBytes):  RWF=      9 Int=      0 D2E=      0 Chk=      3 Scr=      1
 Normal termination of Gaussian 09 at Thu Mar  9 15:19:17 2017.
