compute-0-9.local
 Entering Gaussian System, Link 0=g09
 Initial command:
 /share/apps/g09RelE.01/g09/l1.exe "/state/partition1/berta/Gau-23228.inp" -scrdir="/state/partition1/berta/"
 Entering Link 1 = /share/apps/g09RelE.01/g09/l1.exe PID=     23229.
  
 Copyright (c) 1988,1990,1992,1993,1995,1998,2003,2009,2015,
            Gaussian, Inc.  All Rights Reserved.
  
 This is part of the Gaussian(R) 09 program.  It is based on
 the Gaussian(R) 03 system (copyright 2003, Gaussian, Inc.),
 the Gaussian(R) 98 system (copyright 1998, Gaussian, Inc.),
 the Gaussian(R) 94 system (copyright 1995, Gaussian, Inc.),
 the Gaussian 92(TM) system (copyright 1992, Gaussian, Inc.),
 the Gaussian 90(TM) system (copyright 1990, Gaussian, Inc.),
 the Gaussian 88(TM) system (copyright 1988, Gaussian, Inc.),
 the Gaussian 86(TM) system (copyright 1986, Carnegie Mellon
 University), and the Gaussian 82(TM) system (copyright 1983,
 Carnegie Mellon University). Gaussian is a federally registered
 trademark of Gaussian, Inc.
  
 This software contains proprietary and confidential information,
 including trade secrets, belonging to Gaussian, Inc.
  
 This software is provided under written license and may be
 used, copied, transmitted, or stored only in accord with that
 written license.
  
 The following legend is applicable only to US Government
 contracts under FAR:
  
                    RESTRICTED RIGHTS LEGEND
  
 Use, reproduction and disclosure by the US Government is
 subject to restrictions as set forth in subparagraphs (a)
 and (c) of the Commercial Computer Software - Restricted
 Rights clause in FAR 52.227-19.
  
 Gaussian, Inc.
 340 Quinnipiac St., Bldg. 40, Wallingford CT 06492
  
  
 ---------------------------------------------------------------
 Warning -- This program may not be used in any manner that
 competes with the business of Gaussian, Inc. or will provide
 assistance to any competitor of Gaussian, Inc.  The licensee
 of this program is prohibited from giving any competitor of
 Gaussian, Inc. access to this program.  By using this program,
 the user acknowledges that Gaussian, Inc. is engaged in the
 business of creating and licensing software in the field of
 computational chemistry and represents and warrants to the
 licensee that it is not a competitor of Gaussian, Inc. and that
 it will not use this program in any manner prohibited above.
 ---------------------------------------------------------------
  

 Cite this work as:
 Gaussian 09, Revision E.01,
 M. J. Frisch, G. W. Trucks, H. B. Schlegel, G. E. Scuseria, 
 M. A. Robb, J. R. Cheeseman, G. Scalmani, V. Barone, B. Mennucci, 
 G. A. Petersson, H. Nakatsuji, M. Caricato, X. Li, H. P. Hratchian, 
 A. F. Izmaylov, J. Bloino, G. Zheng, J. L. Sonnenberg, M. Hada, 
 M. Ehara, K. Toyota, R. Fukuda, J. Hasegawa, M. Ishida, T. Nakajima, 
 Y. Honda, O. Kitao, H. Nakai, T. Vreven, J. A. Montgomery, Jr., 
 J. E. Peralta, F. Ogliaro, M. Bearpark, J. J. Heyd, E. Brothers, 
 K. N. Kudin, V. N. Staroverov, T. Keith, R. Kobayashi, J. Normand, 
 K. Raghavachari, A. Rendell, J. C. Burant, S. S. Iyengar, J. Tomasi, 
 M. Cossi, N. Rega, J. M. Millam, M. Klene, J. E. Knox, J. B. Cross, 
 V. Bakken, C. Adamo, J. Jaramillo, R. Gomperts, R. E. Stratmann, 
 O. Yazyev, A. J. Austin, R. Cammi, C. Pomelli, J. W. Ochterski, 
 R. L. Martin, K. Morokuma, V. G. Zakrzewski, G. A. Voth, 
 P. Salvador, J. J. Dannenberg, S. Dapprich, A. D. Daniels, 
 O. Farkas, J. B. Foresman, J. V. Ortiz, J. Cioslowski, 
 and D. J. Fox, Gaussian, Inc., Wallingford CT, 2013.
 
 ******************************************
 Gaussian 09:  ES64L-G09RevE.01 30-Nov-2015
                 9-Mar-2017 
 ******************************************
 %chk=AB-AB-NHscan.chk
 %nproc=4
 Will use up to    4 processors via shared memory.
 %mem=8605MB
 -----------------------------------------------------------
 #P RwB97XD/6-311G(d,p)int(grid=ultrafine) opt(modred,loose)
 -----------------------------------------------------------
 1/7=-1,14=-1,18=120,19=15,26=4,38=1/1,3;
 2/9=110,12=2,17=6,18=5,40=1/2;
 3/5=4,6=6,7=101,11=2,16=1,25=1,30=1,71=1,74=-58,75=-5,116=1/1,2,3;
 4//1;
 5/5=2,38=5/2;
 6/7=2,8=2,9=2,10=2,28=1/1;
 7//1,2,3,16;
 1/7=-1,14=-1,18=20,19=15,26=4/3(2);
 2/9=110/2;
 99//99;
 2/9=110/2;
 3/5=4,6=6,7=101,11=2,16=1,25=1,30=1,71=1,74=-58,75=-5,116=1/1,2,3;
 4/5=5,16=3,69=1/1;
 5/5=2,38=5/2;
 7//1,2,3,16;
 1/7=-1,14=-1,18=20,19=15,26=4/3(-5);
 2/9=110/2;
 6/7=2,8=2,9=2,10=2,19=2,28=1/1;
 99/9=1/99;
 Leave Link    1 at Thu Mar  9 15:06:47 2017, MaxMem=  1127874560 cpu:         0.2
 (Enter /share/apps/g09RelE.01/g09/l101.exe)
 --------------------
 AB2-mult-scan5_2.gjf
 --------------------
 Symbolic Z-matrix:
 Charge =  0 Multiplicity = 1
 B                    -0.03386  -1.25625   0. 
 N                     1.26562   0.39716   0. 
 N                    -1.23897  -0.36744   0. 
 B                     0.        1.20633   0. 
 H                    -1.81405  -0.36834   0.82943 
 H                    -1.81405  -0.36834  -0.82943 
 H                    -0.2963    1.73696   1.03396 
 H                    -0.2963    1.73696  -1.03396 
 H                     1.83739   0.42447  -0.83024 
 H                     1.83739   0.42447   0.83024 
 H                     0.26436  -1.77229  -1.03663 
 H                     0.26436  -1.77229   1.03663 
 
 Add virtual bond connecting atoms N2         and B1         Dist= 3.97D+00.
 Add virtual bond connecting atoms B4         and N3         Dist= 3.79D+00.
 The following ModRedundant input section has been read:
 B       1       2 F                                                           
 B       3       4 S   1 0.1000                                                
 
 NAtoms=     12 NQM=       12 NQMF=       0 NMMI=      0 NMMIF=      0
                NMic=       0 NMicF=      0.
                    Isotopes and Nuclear Properties:
 (Nuclear quadrupole moments (NQMom) in fm**2, nuclear magnetic moments (NMagM)
  in nuclear magnetons)

  Atom         1           2           3           4           5           6           7           8           9          10
 IAtWgt=          11          14          14          11           1           1           1           1           1           1
 AtmWgt=  11.0093053  14.0030740  14.0030740  11.0093053   1.0078250   1.0078250   1.0078250   1.0078250   1.0078250   1.0078250
 NucSpn=           3           2           2           3           1           1           1           1           1           1
 AtZEff=   0.0000000   0.0000000   0.0000000   0.0000000   0.0000000   0.0000000   0.0000000   0.0000000   0.0000000   0.0000000
 NQMom=    4.0590000   2.0440000   2.0440000   4.0590000   0.0000000   0.0000000   0.0000000   0.0000000   0.0000000   0.0000000
 NMagM=    2.6886370   0.4037610   0.4037610   2.6886370   2.7928460   2.7928460   2.7928460   2.7928460   2.7928460   2.7928460
 AtZNuc=   5.0000000   7.0000000   7.0000000   5.0000000   1.0000000   1.0000000   1.0000000   1.0000000   1.0000000   1.0000000

  Atom        11          12
 IAtWgt=           1           1
 AtmWgt=   1.0078250   1.0078250
 NucSpn=           1           1
 AtZEff=   0.0000000   0.0000000
 NQMom=    0.0000000   0.0000000
 NMagM=    2.7928460   2.7928460
 AtZNuc=   1.0000000   1.0000000
 Leave Link  101 at Thu Mar  9 15:06:48 2017, MaxMem=  1127874560 cpu:         1.5
 (Enter /share/apps/g09RelE.01/g09/l103.exe)

 GradGradGradGradGradGradGradGradGradGradGradGradGradGradGradGradGradGrad
 Berny optimization.
 Initialization pass.
                           ----------------------------
                           !    Initial Parameters    !
                           ! (Angstroms and Degrees)  !
 --------------------------                            --------------------------
 ! Name  Definition              Value          Derivative Info.                !
 --------------------------------------------------------------------------------
 ! R1    R(1,2)                  2.1029         Frozen                          !
 ! R2    R(1,3)                  1.4974         estimate D2E/DX2                !
 ! R3    R(1,11)                 1.1958         estimate D2E/DX2                !
 ! R4    R(1,12)                 1.1958         estimate D2E/DX2                !
 ! R5    R(2,4)                  1.5022         estimate D2E/DX2                !
 ! R6    R(2,9)                  1.0084         estimate D2E/DX2                !
 ! R7    R(2,10)                 1.0084         estimate D2E/DX2                !
 ! R8    R(3,4)                  2.003          Scan                            !
 ! R9    R(3,5)                  1.0093         estimate D2E/DX2                !
 ! R10   R(3,6)                  1.0093         estimate D2E/DX2                !
 ! R11   R(4,7)                  1.1993         estimate D2E/DX2                !
 ! R12   R(4,8)                  1.1993         estimate D2E/DX2                !
 ! A1    A(2,1,3)               91.7551         estimate D2E/DX2                !
 ! A2    A(2,1,11)             100.6723         estimate D2E/DX2                !
 ! A3    A(2,1,12)             100.6723         estimate D2E/DX2                !
 ! A4    A(3,1,11)             117.1851         estimate D2E/DX2                !
 ! A5    A(3,1,12)             117.1851         estimate D2E/DX2                !
 ! A6    A(11,1,12)            120.2068         estimate D2E/DX2                !
 ! A7    A(1,2,4)               84.4278         estimate D2E/DX2                !
 ! A8    A(1,2,9)              111.8176         estimate D2E/DX2                !
 ! A9    A(1,2,10)             111.8176         estimate D2E/DX2                !
 ! A10   A(4,2,9)              117.5873         estimate D2E/DX2                !
 ! A11   A(4,2,10)             117.5873         estimate D2E/DX2                !
 ! A12   A(9,2,10)             110.83           estimate D2E/DX2                !
 ! A13   A(1,3,4)               88.1979         estimate D2E/DX2                !
 ! A14   A(1,3,5)              117.2599         estimate D2E/DX2                !
 ! A15   A(1,3,6)              117.2599         estimate D2E/DX2                !
 ! A16   A(4,3,5)              110.6806         estimate D2E/DX2                !
 ! A17   A(4,3,6)              110.6806         estimate D2E/DX2                !
 ! A18   A(5,3,6)              110.5293         estimate D2E/DX2                !
 ! A19   A(2,4,3)               95.6191         estimate D2E/DX2                !
 ! A20   A(2,4,7)              116.5171         estimate D2E/DX2                !
 ! A21   A(2,4,8)              116.5171         estimate D2E/DX2                !
 ! A22   A(3,4,7)              101.2336         estimate D2E/DX2                !
 ! A23   A(3,4,8)              101.2336         estimate D2E/DX2                !
 ! A24   A(7,4,8)              119.1073         estimate D2E/DX2                !
 ! D1    D(3,1,2,4)              0.0            estimate D2E/DX2                !
 ! D2    D(3,1,2,9)           -117.5254         estimate D2E/DX2                !
 ! D3    D(3,1,2,10)           117.5254         estimate D2E/DX2                !
 ! D4    D(11,1,2,4)           118.0928         estimate D2E/DX2                !
 ! D5    D(11,1,2,9)             0.5674         estimate D2E/DX2                !
 ! D6    D(11,1,2,10)         -124.3817         estimate D2E/DX2                !
 ! D7    D(12,1,2,4)          -118.0928         estimate D2E/DX2                !
 ! D8    D(12,1,2,9)           124.3817         estimate D2E/DX2                !
 ! D9    D(12,1,2,10)           -0.5674         estimate D2E/DX2                !
 ! D10   D(2,1,3,4)              0.0            estimate D2E/DX2                !
 ! D11   D(2,1,3,5)           -112.4121         estimate D2E/DX2                !
 ! D12   D(2,1,3,6)            112.4121         estimate D2E/DX2                !
 ! D13   D(11,1,3,4)          -102.9455         estimate D2E/DX2                !
 ! D14   D(11,1,3,5)           144.6424         estimate D2E/DX2                !
 ! D15   D(11,1,3,6)             9.4667         estimate D2E/DX2                !
 ! D16   D(12,1,3,4)           102.9455         estimate D2E/DX2                !
 ! D17   D(12,1,3,5)            -9.4667         estimate D2E/DX2                !
 ! D18   D(12,1,3,6)          -144.6424         estimate D2E/DX2                !
 ! D19   D(1,2,4,3)              0.0            estimate D2E/DX2                !
 ! D20   D(1,2,4,7)            105.5367         estimate D2E/DX2                !
 ! D21   D(1,2,4,8)           -105.5367         estimate D2E/DX2                !
 ! D22   D(9,2,4,3)            111.7368         estimate D2E/DX2                !
 ! D23   D(9,2,4,7)           -142.7265         estimate D2E/DX2                !
 ! D24   D(9,2,4,8)              6.2001         estimate D2E/DX2                !
 ! D25   D(10,2,4,3)          -111.7368         estimate D2E/DX2                !
 ! D26   D(10,2,4,7)            -6.2001         estimate D2E/DX2                !
 ! D27   D(10,2,4,8)           142.7265         estimate D2E/DX2                !
 ! D28   D(1,3,4,2)              0.0            estimate D2E/DX2                !
 ! D29   D(1,3,4,7)           -118.4848         estimate D2E/DX2                !
 ! D30   D(1,3,4,8)            118.4848         estimate D2E/DX2                !
 ! D31   D(5,3,4,2)            118.5509         estimate D2E/DX2                !
 ! D32   D(5,3,4,7)              0.0661         estimate D2E/DX2                !
 ! D33   D(5,3,4,8)           -122.9643         estimate D2E/DX2                !
 ! D34   D(6,3,4,2)           -118.5509         estimate D2E/DX2                !
 ! D35   D(6,3,4,7)            122.9643         estimate D2E/DX2                !
 ! D36   D(6,3,4,8)             -0.0661         estimate D2E/DX2                !
 --------------------------------------------------------------------------------
 Trust Radius=3.00D-01 FncErr=1.00D-07 GrdErr=1.00D-06
 Number of optimizations in scan=   2
 Number of steps in this run=     82 maximum allowed number of steps=    100.
 GradGradGradGradGradGradGradGradGradGradGradGradGradGradGradGradGradGrad

 Leave Link  103 at Thu Mar  9 15:06:48 2017, MaxMem=  1127874560 cpu:         0.1
 (Enter /share/apps/g09RelE.01/g09/l202.exe)
                          Input orientation:                          
 ---------------------------------------------------------------------
 Center     Atomic      Atomic             Coordinates (Angstroms)
 Number     Number       Type             X           Y           Z
 ---------------------------------------------------------------------
      1          5           0       -0.033859   -1.256253    0.000000
      2          7           0        1.265617    0.397155    0.000000
      3          7           0       -1.238974   -0.367440    0.000000
      4          5           0        0.000000    1.206332    0.000000
      5          1           0       -1.814053   -0.368343    0.829426
      6          1           0       -1.814053   -0.368343   -0.829426
      7          1           0       -0.296297    1.736956    1.033959
      8          1           0       -0.296297    1.736956   -1.033959
      9          1           0        1.837385    0.424473   -0.830236
     10          1           0        1.837385    0.424473    0.830236
     11          1           0        0.264362   -1.772287   -1.036633
     12          1           0        0.264362   -1.772287    1.036633
 ---------------------------------------------------------------------
                    Distance matrix (angstroms):
                    1          2          3          4          5
     1  B    0.000000
     2  N    2.102949   0.000000
     3  N    1.497428   2.618698   0.000000
     4  B    2.462818   1.502183   2.002952   0.000000
     5  H    2.155324   3.279985   1.009289   2.541326   0.000000
     6  H    2.155324   3.279985   1.009289   2.541326   1.658852
     7  H    3.177616   2.302979   2.527092   1.199344   2.603402
     8  H    3.177616   2.302979   2.527092   1.199344   3.195007
     9  H    2.648714   1.008443   3.283352   2.162540   4.088525
    10  H    2.648714   1.008443   3.283352   2.162540   3.736517
    11  H    1.195757   2.604534   2.303958   3.164912   3.126187
    12  H    1.195757   2.604534   2.303958   3.164912   2.516705
                    6          7          8          9         10
     6  H    0.000000
     7  H    3.195007   0.000000
     8  H    2.603402   2.067918   0.000000
     9  H    3.736517   3.122568   2.513307   0.000000
    10  H    4.088525   2.513307   3.122568   1.660472   0.000000
    11  H    2.516705   4.112964   3.553749   2.709752   3.284107
    12  H    3.126187   3.553749   4.112964   3.284107   2.709752
                   11         12
    11  H    0.000000
    12  H    2.073266   0.000000
 Stoichiometry    B2H8N2
 Framework group  CS[SG(B2N2),X(H8)]
 Deg. of freedom    17
 Full point group                 CS      NOp   2
 Largest Abelian subgroup         CS      NOp   2
 Largest concise Abelian subgroup CS      NOp   2
                         Standard orientation:                         
 ---------------------------------------------------------------------
 Center     Atomic      Atomic             Coordinates (Angstroms)
 Number     Number       Type             X           Y           Z
 ---------------------------------------------------------------------
      1          5           0       -0.033859   -1.256253    0.000000
      2          7           0        1.265617    0.397155    0.000000
      3          7           0       -1.238974   -0.367440    0.000000
      4          5           0        0.000000    1.206332    0.000000
      5          1           0       -1.814053   -0.368343    0.829426
      6          1           0       -1.814053   -0.368343   -0.829426
      7          1           0       -0.296297    1.736956    1.033959
      8          1           0       -0.296297    1.736956   -1.033959
      9          1           0        1.837385    0.424473   -0.830236
     10          1           0        1.837385    0.424473    0.830236
     11          1           0        0.264362   -1.772287   -1.036633
     12          1           0        0.264362   -1.772287    1.036633
 ---------------------------------------------------------------------
 Rotational constants (GHZ):     10.9932351      6.6097365      4.6691579
 Leave Link  202 at Thu Mar  9 15:06:48 2017, MaxMem=  1127874560 cpu:         0.0
 (Enter /share/apps/g09RelE.01/g09/l301.exe)
 Standard basis: 6-311G(d,p) (5D, 7F)
 Ernie: Thresh=  0.10000D-02 Tol=  0.10000D-05 Strict=F.
 There are    80 symmetry adapted cartesian basis functions of A'  symmetry.
 There are    44 symmetry adapted cartesian basis functions of A"  symmetry.
 There are    76 symmetry adapted basis functions of A'  symmetry.
 There are    44 symmetry adapted basis functions of A"  symmetry.
   120 basis functions,   192 primitive gaussians,   124 cartesian basis functions
    16 alpha electrons       16 beta electrons
       nuclear repulsion energy       115.8093787394 Hartrees.
 IExCor= 4639 DFT=T Ex+Corr=wB97XD ExCW=0 ScaHFX=  1.000000
 ScaDFX=  1.000000  1.000000  1.000000  1.000000 ScalE2=  1.000000  1.000000
 IRadAn=      5 IRanWt=     -1 IRanGd=            0 ICorTp=0 IEmpDi=121
  HFx wShort=  0.000000 wLong=  0.200000 cFull=  0.222036 cShort=  0.000000 cLong=  0.777964
  DFx wShort=  0.000000 wLong=  0.200000 cFull=  0.000000 cShort=  0.000000 cLong=  1.000000
 NAtoms=   12 NActive=   12 NUniq=    8 SFac= 2.25D+00 NAtFMM=   60 NAOKFM=F Big=F
 Integral buffers will be    131072 words long.
 Raffenetti 2 integral format.
 Two-electron integral symmetry is turned on.
 R6Disp:  Grimme-D2 Dispersion energy=       -0.0054908668 Hartrees.
 Nuclear repulsion after empirical dispersion term =      115.8038878725 Hartrees.
 Leave Link  301 at Thu Mar  9 15:06:48 2017, MaxMem=  1127874560 cpu:         0.3
 (Enter /share/apps/g09RelE.01/g09/l302.exe)
 NPDir=0 NMtPBC=     1 NCelOv=     1 NCel=       1 NClECP=     1 NCelD=      1
         NCelK=      1 NCelE2=     1 NClLst=     1 CellRange=     0.0.
 One-electron integrals computed using PRISM.
 One-electron integral symmetry used in STVInt
 NBasis=   120 RedAO= T EigKep=  5.60D-03  NBF=    76    44
 NBsUse=   120 1.00D-06 EigRej= -1.00D+00 NBFU=    76    44
 Precomputing XC quadrature grid using
 IXCGrd= 4 IRadAn=           5 IRanWt=          -1 IRanGd=           0 AccXCQ= 0.00D+00.
 Generated NRdTot=       0 NPtTot=           0 NUsed=           0 NTot=          32
 NSgBfM=   124   124   124   124   124 MxSgAt=    12 MxSgA2=    12.
 Leave Link  302 at Thu Mar  9 15:06:49 2017, MaxMem=  1127874560 cpu:         1.2
 (Enter /share/apps/g09RelE.01/g09/l303.exe)
 DipDrv:  MaxL=1.
 Leave Link  303 at Thu Mar  9 15:06:49 2017, MaxMem=  1127874560 cpu:         0.2
 (Enter /share/apps/g09RelE.01/g09/l401.exe)
 ExpMin= 9.89D-02 ExpMax= 6.29D+03 ExpMxC= 9.49D+02 IAcc=3 IRadAn=         5 AccDes= 0.00D+00
 Harris functional with IExCor= 4639 and IRadAn=       5 diagonalized for initial guess.
 HarFok:  IExCor= 4639 AccDes= 0.00D+00 IRadAn=         5 IDoV= 1 UseB2=F ITyADJ=14
 ICtDFT=  3500011 ScaDFX=  1.000000  1.000000  1.000000  1.000000
 FoFCou: FMM=F IPFlag=           0 FMFlag=      100000 FMFlg1=           0
         NFxFlg=           0 DoJE=T BraDBF=F KetDBF=T FulRan=T
         wScrn=  0.000000 ICntrl=     500 IOpCl=  0 I1Cent=   200000004 NGrid=           0
         NMat0=    1 NMatS0=      1 NMatT0=    0 NMatD0=    1 NMtDS0=    0 NMtDT0=    0
 Petite list used in FoFCou.
 Harris En= -156.195950972033    
 JPrj=0 DoOrth=F DoCkMO=F.
 Initial guess orbital symmetries:
       Occupied  (A') (A') (A') (A') (A') (A') (A') (A') (A") (A")
                 (A') (A') (A') (A") (A") (A')
       Virtual   (A') (A') (A") (A') (A') (A') (A") (A') (A") (A')
                 (A') (A") (A") (A') (A') (A") (A') (A') (A') (A")
                 (A") (A') (A') (A') (A") (A') (A') (A") (A") (A')
                 (A') (A") (A') (A') (A') (A") (A") (A') (A') (A')
                 (A") (A') (A") (A') (A") (A') (A") (A') (A') (A")
                 (A') (A") (A") (A') (A") (A') (A") (A') (A") (A')
                 (A') (A") (A') (A") (A") (A') (A') (A') (A') (A")
                 (A') (A') (A') (A') (A") (A") (A') (A") (A") (A')
                 (A') (A") (A') (A") (A') (A') (A") (A') (A') (A")
                 (A') (A') (A") (A") (A') (A') (A') (A') (A") (A")
                 (A') (A') (A') (A')
 The electronic state of the initial guess is 1-A'.
 Leave Link  401 at Thu Mar  9 15:06:50 2017, MaxMem=  1127874560 cpu:         5.2
 (Enter /share/apps/g09RelE.01/g09/l502.exe)
 Closed shell SCF:
 Using DIIS extrapolation, IDIIS=  1040.
 Integral symmetry usage will be decided dynamically.
 Keep R1 ints in memory in symmetry-blocked form, NReq=79321962.
 IVT=       66538 IEndB=       66538 NGot=  1127874560 MDV=  1114529905
 LenX=  1114529905 LenY=  1114514088
 Requested convergence on RMS density matrix=1.00D-08 within 128 cycles.
 Requested convergence on MAX density matrix=1.00D-06.
 Requested convergence on             energy=1.00D-06.
 No special actions if energy rises.
 FoFCou: FMM=F IPFlag=           0 FMFlag=           0 FMFlg1=           0
         NFxFlg=           0 DoJE=F BraDBF=F KetDBF=F FulRan=T
         wScrn=  0.000000 ICntrl=     600 IOpCl=  0 I1Cent=           0 NGrid=           0
         NMat0=    1 NMatS0=   7260 NMatT0=    0 NMatD0=    1 NMtDS0=    0 NMtDT0=    0
 Petite list used in FoFCou.
 Integral accuracy reduced to 1.0D-05 until final iterations.

 Cycle   1  Pass 0  IDiag  1:
 E= -164.019056280192    
 DIIS: error= 9.64D-02 at cycle   1 NSaved=   1.
 NSaved= 1 IEnMin= 1 EnMin= -164.019056280192     IErMin= 1 ErrMin= 9.64D-02
 ErrMax= 9.64D-02  0.00D+00 EMaxC= 1.00D-01 BMatC= 3.48D-01 BMatP= 3.48D-01
 IDIUse=3 WtCom= 3.61D-02 WtEn= 9.64D-01
 Coeff-Com:  0.100D+01
 Coeff-En:   0.100D+01
 Coeff:      0.100D+01
 Gap=     0.446 Goal=   None    Shift=    0.000
 GapD=    0.446 DampG=2.000 DampE=0.500 DampFc=1.0000 IDamp=-1.
 RMSDP=1.81D-03 MaxDP=2.48D-02              OVMax= 7.86D-02

 Cycle   2  Pass 0  IDiag  1:
 E= -164.063088690986     Delta-E=       -0.044032410794 Rises=F Damp=F
 DIIS: error= 8.47D-03 at cycle   2 NSaved=   2.
 NSaved= 2 IEnMin= 2 EnMin= -164.063088690986     IErMin= 2 ErrMin= 8.47D-03
 ErrMax= 8.47D-03  0.00D+00 EMaxC= 1.00D-01 BMatC= 6.45D-03 BMatP= 3.48D-01
 IDIUse=3 WtCom= 9.15D-01 WtEn= 8.47D-02
 Coeff-Com:  0.686D-01 0.931D+00
 Coeff-En:   0.000D+00 0.100D+01
 Coeff:      0.628D-01 0.937D+00
 Gap=     0.416 Goal=   None    Shift=    0.000
 RMSDP=6.06D-04 MaxDP=1.85D-02 DE=-4.40D-02 OVMax= 2.47D-02

 Cycle   3  Pass 0  IDiag  1:
 E= -164.065720074097     Delta-E=       -0.002631383111 Rises=F Damp=F
 DIIS: error= 5.41D-03 at cycle   3 NSaved=   3.
 NSaved= 3 IEnMin= 3 EnMin= -164.065720074097     IErMin= 3 ErrMin= 5.41D-03
 ErrMax= 5.41D-03  0.00D+00 EMaxC= 1.00D-01 BMatC= 3.09D-03 BMatP= 6.45D-03
 IDIUse=3 WtCom= 9.46D-01 WtEn= 5.41D-02
 Coeff-Com:  0.174D-01 0.422D+00 0.560D+00
 Coeff-En:   0.000D+00 0.282D+00 0.718D+00
 Coeff:      0.165D-01 0.415D+00 0.569D+00
 Gap=     0.421 Goal=   None    Shift=    0.000
 RMSDP=2.72D-04 MaxDP=1.02D-02 DE=-2.63D-03 OVMax= 1.51D-02

 Cycle   4  Pass 0  IDiag  1:
 E= -164.068155821638     Delta-E=       -0.002435747541 Rises=F Damp=F
 DIIS: error= 8.80D-04 at cycle   4 NSaved=   4.
 NSaved= 4 IEnMin= 4 EnMin= -164.068155821638     IErMin= 4 ErrMin= 8.80D-04
 ErrMax= 8.80D-04  0.00D+00 EMaxC= 1.00D-01 BMatC= 6.45D-05 BMatP= 3.09D-03
 IDIUse=3 WtCom= 9.91D-01 WtEn= 8.80D-03
 Coeff-Com:  0.385D-02 0.924D-01 0.186D+00 0.718D+00
 Coeff-En:   0.000D+00 0.000D+00 0.000D+00 0.100D+01
 Coeff:      0.382D-02 0.916D-01 0.184D+00 0.721D+00
 Gap=     0.419 Goal=   None    Shift=    0.000
 RMSDP=5.02D-05 MaxDP=1.34D-03 DE=-2.44D-03 OVMax= 2.24D-03

 Cycle   5  Pass 0  IDiag  1:
 E= -164.068216625435     Delta-E=       -0.000060803797 Rises=F Damp=F
 DIIS: error= 2.59D-04 at cycle   5 NSaved=   5.
 NSaved= 5 IEnMin= 5 EnMin= -164.068216625435     IErMin= 5 ErrMin= 2.59D-04
 ErrMax= 2.59D-04  0.00D+00 EMaxC= 1.00D-01 BMatC= 4.10D-06 BMatP= 6.45D-05
 IDIUse=3 WtCom= 9.97D-01 WtEn= 2.59D-03
 Coeff-Com: -0.199D-02-0.424D-01-0.362D-01 0.130D+00 0.951D+00
 Coeff-En:   0.000D+00 0.000D+00 0.000D+00 0.000D+00 0.100D+01
 Coeff:     -0.198D-02-0.423D-01-0.361D-01 0.130D+00 0.951D+00
 Gap=     0.420 Goal=   None    Shift=    0.000
 RMSDP=2.80D-05 MaxDP=5.58D-04 DE=-6.08D-05 OVMax= 1.74D-03

 Cycle   6  Pass 0  IDiag  1:
 E= -164.068225344722     Delta-E=       -0.000008719287 Rises=F Damp=F
 DIIS: error= 6.79D-05 at cycle   6 NSaved=   6.
 NSaved= 6 IEnMin= 6 EnMin= -164.068225344722     IErMin= 6 ErrMin= 6.79D-05
 ErrMax= 6.79D-05  0.00D+00 EMaxC= 1.00D-01 BMatC= 2.65D-07 BMatP= 4.10D-06
 IDIUse=1 WtCom= 1.00D+00 WtEn= 0.00D+00
 Coeff-Com: -0.411D-03-0.908D-02-0.106D-01-0.230D-01 0.860D-01 0.957D+00
 Coeff:     -0.411D-03-0.908D-02-0.106D-01-0.230D-01 0.860D-01 0.957D+00
 Gap=     0.420 Goal=   None    Shift=    0.000
 RMSDP=8.48D-06 MaxDP=1.24D-04 DE=-8.72D-06 OVMax= 7.15D-04

 Initial convergence to 1.0D-05 achieved.  Increase integral accuracy.
 Cycle   7  Pass 1  IDiag  1:
 E= -164.068265643800     Delta-E=       -0.000040299078 Rises=F Damp=F
 DIIS: error= 4.31D-05 at cycle   1 NSaved=   1.
 NSaved= 1 IEnMin= 1 EnMin= -164.068265643800     IErMin= 1 ErrMin= 4.31D-05
 ErrMax= 4.31D-05  0.00D+00 EMaxC= 1.00D-01 BMatC= 3.10D-07 BMatP= 3.10D-07
 IDIUse=1 WtCom= 1.00D+00 WtEn= 0.00D+00
 Coeff-Com:  0.100D+01
 Coeff:      0.100D+01
 Gap=     0.420 Goal=   None    Shift=    0.000
 RMSDP=8.48D-06 MaxDP=1.24D-04 DE=-4.03D-05 OVMax= 3.02D-04

 Cycle   8  Pass 1  IDiag  1:
 E= -164.068265920175     Delta-E=       -0.000000276375 Rises=F Damp=F
 DIIS: error= 4.66D-05 at cycle   2 NSaved=   2.
 NSaved= 2 IEnMin= 2 EnMin= -164.068265920175     IErMin= 1 ErrMin= 4.31D-05
 ErrMax= 4.66D-05  0.00D+00 EMaxC= 1.00D-01 BMatC= 1.39D-07 BMatP= 3.10D-07
 IDIUse=1 WtCom= 1.00D+00 WtEn= 0.00D+00
 Coeff-Com:  0.363D+00 0.637D+00
 Coeff:      0.363D+00 0.637D+00
 Gap=     0.420 Goal=   None    Shift=    0.000
 RMSDP=2.25D-06 MaxDP=8.45D-05 DE=-2.76D-07 OVMax= 1.64D-04

 Cycle   9  Pass 1  IDiag  1:
 E= -164.068266033915     Delta-E=       -0.000000113740 Rises=F Damp=F
 DIIS: error= 1.48D-05 at cycle   3 NSaved=   3.
 NSaved= 3 IEnMin= 3 EnMin= -164.068266033915     IErMin= 3 ErrMin= 1.48D-05
 ErrMax= 1.48D-05  0.00D+00 EMaxC= 1.00D-01 BMatC= 2.08D-08 BMatP= 1.39D-07
 IDIUse=1 WtCom= 1.00D+00 WtEn= 0.00D+00
 Coeff-Com: -0.738D-01 0.235D+00 0.839D+00
 Coeff:     -0.738D-01 0.235D+00 0.839D+00
 Gap=     0.420 Goal=   None    Shift=    0.000
 RMSDP=1.16D-06 MaxDP=2.12D-05 DE=-1.14D-07 OVMax= 9.19D-05

 Cycle  10  Pass 1  IDiag  1:
 E= -164.068266061063     Delta-E=       -0.000000027148 Rises=F Damp=F
 DIIS: error= 4.62D-06 at cycle   4 NSaved=   4.
 NSaved= 4 IEnMin= 4 EnMin= -164.068266061063     IErMin= 4 ErrMin= 4.62D-06
 ErrMax= 4.62D-06  0.00D+00 EMaxC= 1.00D-01 BMatC= 5.55D-10 BMatP= 2.08D-08
 IDIUse=1 WtCom= 1.00D+00 WtEn= 0.00D+00
 Coeff-Com: -0.162D-01-0.348D-01-0.395D-01 0.109D+01
 Coeff:     -0.162D-01-0.348D-01-0.395D-01 0.109D+01
 Gap=     0.420 Goal=   None    Shift=    0.000
 RMSDP=5.12D-07 MaxDP=6.57D-06 DE=-2.71D-08 OVMax= 4.68D-05

 Cycle  11  Pass 1  IDiag  1:
 E= -164.068266063748     Delta-E=       -0.000000002685 Rises=F Damp=F
 DIIS: error= 2.07D-06 at cycle   5 NSaved=   5.
 NSaved= 5 IEnMin= 5 EnMin= -164.068266063748     IErMin= 5 ErrMin= 2.07D-06
 ErrMax= 2.07D-06  0.00D+00 EMaxC= 1.00D-01 BMatC= 1.18D-10 BMatP= 5.55D-10
 IDIUse=1 WtCom= 1.00D+00 WtEn= 0.00D+00
 Coeff-Com:  0.545D-02-0.380D-01-0.123D+00 0.257D+00 0.899D+00
 Coeff:      0.545D-02-0.380D-01-0.123D+00 0.257D+00 0.899D+00
 Gap=     0.420 Goal=   None    Shift=    0.000
 RMSDP=2.14D-07 MaxDP=3.01D-06 DE=-2.69D-09 OVMax= 1.96D-05

 Cycle  12  Pass 1  IDiag  1:
 E= -164.068266064131     Delta-E=       -0.000000000383 Rises=F Damp=F
 DIIS: error= 5.37D-07 at cycle   6 NSaved=   6.
 NSaved= 6 IEnMin= 6 EnMin= -164.068266064131     IErMin= 6 ErrMin= 5.37D-07
 ErrMax= 5.37D-07  0.00D+00 EMaxC= 1.00D-01 BMatC= 2.30D-11 BMatP= 1.18D-10
 IDIUse=1 WtCom= 1.00D+00 WtEn= 0.00D+00
 Coeff-Com:  0.421D-02-0.113D-01-0.467D-01-0.344D-01 0.347D+00 0.741D+00
 Coeff:      0.421D-02-0.113D-01-0.467D-01-0.344D-01 0.347D+00 0.741D+00
 Gap=     0.420 Goal=   None    Shift=    0.000
 RMSDP=5.95D-08 MaxDP=8.82D-07 DE=-3.83D-10 OVMax= 5.47D-06

 Cycle  13  Pass 1  IDiag  1:
 E= -164.068266064172     Delta-E=       -0.000000000040 Rises=F Damp=F
 DIIS: error= 1.47D-07 at cycle   7 NSaved=   7.
 NSaved= 7 IEnMin= 7 EnMin= -164.068266064172     IErMin= 7 ErrMin= 1.47D-07
 ErrMax= 1.47D-07  0.00D+00 EMaxC= 1.00D-01 BMatC= 1.23D-12 BMatP= 2.30D-11
 IDIUse=1 WtCom= 1.00D+00 WtEn= 0.00D+00
 Coeff-Com: -0.288D-04 0.290D-02 0.735D-02-0.349D-01-0.454D-01 0.144D+00
 Coeff-Com:  0.926D+00
 Coeff:     -0.288D-04 0.290D-02 0.735D-02-0.349D-01-0.454D-01 0.144D+00
 Coeff:      0.926D+00
 Gap=     0.420 Goal=   None    Shift=    0.000
 RMSDP=1.59D-08 MaxDP=2.05D-07 DE=-4.03D-11 OVMax= 1.51D-06

 Cycle  14  Pass 1  IDiag  1:
 E= -164.068266064173     Delta-E=       -0.000000000002 Rises=F Damp=F
 DIIS: error= 3.73D-08 at cycle   8 NSaved=   8.
 NSaved= 8 IEnMin= 8 EnMin= -164.068266064173     IErMin= 8 ErrMin= 3.73D-08
 ErrMax= 3.73D-08  0.00D+00 EMaxC= 1.00D-01 BMatC= 8.59D-14 BMatP= 1.23D-12
 IDIUse=1 WtCom= 1.00D+00 WtEn= 0.00D+00
 Coeff-Com: -0.251D-03 0.138D-02 0.466D-02-0.581D-02-0.348D-01-0.193D-01
 Coeff-Com:  0.181D+00 0.873D+00
 Coeff:     -0.251D-03 0.138D-02 0.466D-02-0.581D-02-0.348D-01-0.193D-01
 Coeff:      0.181D+00 0.873D+00
 Gap=     0.420 Goal=   None    Shift=    0.000
 RMSDP=4.19D-09 MaxDP=6.87D-08 DE=-1.65D-12 OVMax= 3.47D-07

 SCF Done:  E(RwB97XD) =  -164.068266064     A.U. after   14 cycles
            NFock= 14  Conv=0.42D-08     -V/T= 2.0054
 KE= 1.631822023004D+02 PE=-6.127101386268D+02 EE= 1.696557823898D+02
 Leave Link  502 at Thu Mar  9 15:07:08 2017, MaxMem=  1127874560 cpu:        70.9
 (Enter /share/apps/g09RelE.01/g09/l601.exe)
 Copying SCF densities to generalized density rwf, IOpCl= 0 IROHF=0.

 **********************************************************************

            Population analysis using the SCF density.

 **********************************************************************

 Orbital symmetries:
       Occupied  (A') (A') (A') (A') (A') (A') (A') (A") (A') (A")
                 (A') (A') (A') (A") (A") (A')
       Virtual   (A') (A') (A') (A") (A') (A") (A') (A') (A") (A')
                 (A") (A') (A") (A') (A') (A") (A') (A') (A') (A")
                 (A") (A') (A') (A') (A") (A') (A') (A") (A') (A")
                 (A') (A") (A') (A') (A') (A") (A") (A') (A') (A')
                 (A") (A") (A') (A') (A") (A") (A') (A') (A') (A")
                 (A') (A") (A") (A') (A") (A') (A') (A") (A") (A')
                 (A') (A') (A") (A") (A") (A') (A') (A') (A") (A')
                 (A') (A') (A') (A') (A") (A') (A") (A") (A") (A')
                 (A') (A") (A') (A") (A') (A') (A') (A") (A') (A")
                 (A') (A') (A") (A") (A') (A') (A') (A') (A") (A")
                 (A') (A') (A') (A')
 The electronic state is 1-A'.
 Alpha  occ. eigenvalues --  -14.43323 -14.42109  -6.85193  -6.84255  -0.98026
 Alpha  occ. eigenvalues --   -0.95091  -0.62749  -0.60191  -0.59346  -0.57901
 Alpha  occ. eigenvalues --   -0.47756  -0.46833  -0.43462  -0.40243  -0.39029
 Alpha  occ. eigenvalues --   -0.33137
 Alpha virt. eigenvalues --    0.08819   0.10858   0.14966   0.15077   0.18846
 Alpha virt. eigenvalues --    0.19229   0.20447   0.20925   0.23683   0.24732
 Alpha virt. eigenvalues --    0.26387   0.26765   0.33313   0.35747   0.39180
 Alpha virt. eigenvalues --    0.43145   0.44971   0.47221   0.48111   0.50924
 Alpha virt. eigenvalues --    0.52505   0.53818   0.55203   0.57863   0.62105
 Alpha virt. eigenvalues --    0.63092   0.64834   0.68994   0.76677   0.77099
 Alpha virt. eigenvalues --    0.78418   0.79796   0.81437   0.90430   0.91277
 Alpha virt. eigenvalues --    1.04933   1.06898   1.10046   1.14671   1.17546
 Alpha virt. eigenvalues --    1.19707   1.26503   1.26652   1.29497   1.33174
 Alpha virt. eigenvalues --    1.37163   1.37930   1.43520   1.63846   1.64076
 Alpha virt. eigenvalues --    1.70230   1.71506   1.73128   1.76801   1.77086
 Alpha virt. eigenvalues --    1.83211   1.85317   1.85636   1.87591   1.93155
 Alpha virt. eigenvalues --    1.96273   2.01027   2.01623   2.02517   2.07780
 Alpha virt. eigenvalues --    2.10143   2.15609   2.19147   2.21805   2.21866
 Alpha virt. eigenvalues --    2.29041   2.39856   2.49347   2.50579   2.55609
 Alpha virt. eigenvalues --    2.56654   2.56923   2.65283   2.65485   2.69560
 Alpha virt. eigenvalues --    2.74007   2.76126   2.78600   2.80619   2.84830
 Alpha virt. eigenvalues --    2.89045   2.94086   2.95554   2.98994   3.03264
 Alpha virt. eigenvalues --    3.03808   3.15985   3.21494   3.32008   4.03718
 Alpha virt. eigenvalues --    4.12019   4.62923   4.68107   4.84083   4.85081
 Alpha virt. eigenvalues --   14.66177  14.80092  35.69176  35.73934
          Condensed to atoms (all electrons):
               1          2          3          4          5          6
     1  B    3.598987   0.144085   0.340433  -0.036124  -0.029901  -0.029901
     2  N    0.144085   6.442668  -0.069272   0.346268   0.003243   0.003243
     3  N    0.340433  -0.069272   6.425475   0.153882   0.369304   0.369304
     4  B   -0.036124   0.346268   0.153882   3.590913  -0.007314  -0.007314
     5  H   -0.029901   0.003243   0.369304  -0.007314   0.462350  -0.030339
     6  H   -0.029901   0.003243   0.369304  -0.007314  -0.030339   0.462350
     7  H    0.000279  -0.022916  -0.021195   0.432509  -0.002941   0.001912
     8  H    0.000279  -0.022916  -0.021195   0.432509   0.001912  -0.002941
     9  H   -0.005233   0.370954   0.003129  -0.032247  -0.000258  -0.000068
    10  H   -0.005233   0.370954   0.003129  -0.032247  -0.000068  -0.000258
    11  H    0.430915  -0.017263  -0.021691  -0.000142   0.005064  -0.010036
    12  H    0.430915  -0.017263  -0.021691  -0.000142  -0.010036   0.005064
               7          8          9         10         11         12
     1  B    0.000279   0.000279  -0.005233  -0.005233   0.430915   0.430915
     2  N   -0.022916  -0.022916   0.370954   0.370954  -0.017263  -0.017263
     3  N   -0.021195  -0.021195   0.003129   0.003129  -0.021691  -0.021691
     4  B    0.432509   0.432509  -0.032247  -0.032247  -0.000142  -0.000142
     5  H   -0.002941   0.001912  -0.000258  -0.000068   0.005064  -0.010036
     6  H    0.001912  -0.002941  -0.000068  -0.000258  -0.010036   0.005064
     7  H    0.697901  -0.019447   0.005332  -0.010395  -0.000805   0.001209
     8  H   -0.019447   0.697901  -0.010395   0.005332   0.001209  -0.000805
     9  H    0.005332  -0.010395   0.466876  -0.031216  -0.002147   0.001543
    10  H   -0.010395   0.005332  -0.031216   0.466876   0.001543  -0.002147
    11  H   -0.000805   0.001209  -0.002147   0.001543   0.683573  -0.019677
    12  H    0.001209  -0.000805   0.001543  -0.002147  -0.019677   0.683573
 Mulliken charges:
               1
     1  B    0.160501
     2  N   -0.531783
     3  N   -0.509614
     4  B    0.159446
     5  H    0.238982
     6  H    0.238982
     7  H   -0.061444
     8  H   -0.061444
     9  H    0.233730
    10  H    0.233730
    11  H   -0.050543
    12  H   -0.050543
 Sum of Mulliken charges =   0.00000
 Mulliken charges with hydrogens summed into heavy atoms:
               1
     1  B    0.059414
     2  N   -0.064324
     3  N   -0.031650
     4  B    0.036559
 Electronic spatial extent (au):  <R**2>=            320.3690
 Charge=             -0.0000 electrons
 Dipole moment (field-independent basis, Debye):
    X=             -0.2164    Y=             -0.2364    Z=             -0.0000  Tot=              0.3205
 Quadrupole moment (field-independent basis, Debye-Ang):
   XX=            -20.1461   YY=            -34.0852   ZZ=            -26.9145
   XY=              2.9583   XZ=             -0.0000   YZ=             -0.0000
 Traceless Quadrupole moment (field-independent basis, Debye-Ang):
   XX=              6.9025   YY=             -7.0366   ZZ=              0.1341
   XY=              2.9583   XZ=             -0.0000   YZ=             -0.0000
 Octapole moment (field-independent basis, Debye-Ang**2):
  XXX=             -0.2966  YYY=             -0.8040  ZZZ=              0.0000  XYY=              0.1359
  XXY=              0.2131  XXZ=              0.0000  XZZ=              0.0785  YZZ=             -0.1259
  YYZ=              0.0000  XYZ=             -0.0000
 Hexadecapole moment (field-independent basis, Debye-Ang**3):
 XXXX=           -142.0038 YYYY=           -243.4775 ZZZZ=            -66.6687 XXXY=             -6.8369
 XXXZ=             -0.0000 YYYX=             -9.9883 YYYZ=              0.0000 ZZZX=             -0.0000
 ZZZY=             -0.0000 XXYY=            -68.8406 XXZZ=            -27.8939 YYZZ=            -54.3834
 XXYZ=             -0.0000 YYXZ=             -0.0000 ZZXY=             -1.2564
 N-N= 1.158038878725D+02 E-N=-6.127101395153D+02  KE= 1.631822023004D+02
 Symmetry A'   KE= 1.547975478054D+02
 Symmetry A"   KE= 8.384654494991D+00
 No NMR shielding tensors so no spin-rotation constants.
 Leave Link  601 at Thu Mar  9 15:07:09 2017, MaxMem=  1127874560 cpu:         0.8
 (Enter /share/apps/g09RelE.01/g09/l701.exe)
 Compute integral first derivatives.
 ... and contract with generalized density number  0.
 R6Disp: Adding Grimme-D2 dispersion energy 1st derivatives to the gradient.
 Leave Link  701 at Thu Mar  9 15:07:09 2017, MaxMem=  1127874560 cpu:         0.8
 (Enter /share/apps/g09RelE.01/g09/l702.exe)
 L702 exits ... SP integral derivatives will be done elsewhere.
 Leave Link  702 at Thu Mar  9 15:07:09 2017, MaxMem=  1127874560 cpu:         0.2
 (Enter /share/apps/g09RelE.01/g09/l703.exe)
 Compute integral first derivatives, UseDBF=F ICtDFT=           0.
 Integral derivatives from FoFJK, PRISM(SPDF).
 Calling FoFJK, ICntrl=      2127 FMM=F ISym2X=1 I1Cent= 0 IOpClX= 0 NMat=1 NMatS=1 NMatT=0.
 FoFJK:  IHMeth= 1 ICntrl=    2127 DoSepK=T KAlg= 0 I1Cent=   0 FoldK=F
 IRaf=         1 NMat=   1 IRICut=       1 DoRegI=T DoRafI=F ISym2E= 1.
 FoFCou: FMM=F IPFlag=           0 FMFlag=      100000 FMFlg1=         800
         NFxFlg=           0 DoJE=F BraDBF=F KetDBF=F FulRan=T
         wScrn=  0.000000 ICntrl=    2527 IOpCl=  0 I1Cent=           0 NGrid=           0
         NMat0=    1 NMatS0=      1 NMatT0=    0 NMatD0=    1 NMtDS0=    0 NMtDT0=    0
 Petite list used in FoFCou.
 Leave Link  703 at Thu Mar  9 15:07:14 2017, MaxMem=  1127874560 cpu:        21.1
 (Enter /share/apps/g09RelE.01/g09/l716.exe)
 Dipole        =-8.51531828D-02-9.29873634D-02 0.00000000D+00
 ***** Axes restored to original set *****
 -------------------------------------------------------------------
 Center     Atomic                   Forces (Hartrees/Bohr)
 Number     Number              X              Y              Z
 -------------------------------------------------------------------
      1        5           0.011999841    0.015593403   -0.000000000
      2        7          -0.011055050   -0.013503175    0.000000000
      3        7           0.009009690    0.011904730    0.000000000
      4        5          -0.009862676   -0.013896644   -0.000000000
      5        1           0.000177906    0.000337079   -0.000027441
      6        1           0.000177906    0.000337079    0.000027441
      7        1          -0.000083708   -0.000002466   -0.000044269
      8        1          -0.000083708   -0.000002466    0.000044269
      9        1          -0.000018259   -0.000288369    0.000054615
     10        1          -0.000018259   -0.000288369   -0.000054615
     11        1          -0.000121841   -0.000095401   -0.000145052
     12        1          -0.000121841   -0.000095401    0.000145052
 -------------------------------------------------------------------
 Cartesian Forces:  Max     0.015593403 RMS     0.005786861
 Leave Link  716 at Thu Mar  9 15:07:14 2017, MaxMem=  1127874560 cpu:         0.1
 (Enter /share/apps/g09RelE.01/g09/l103.exe)

 GradGradGradGradGradGradGradGradGradGradGradGradGradGradGradGradGradGrad
 Berny optimization.
 FormGI is forming the generalized inverse of G from B-inverse, IUseBI=4.
 Internal  Forces:  Max     0.018282583 RMS     0.002930254
 Search for a local minimum.
 Step number   1 out of a maximum of   82 on scan point     1 out of     2
 All quantities printed in internal units (Hartrees-Bohrs-Radians)
 RMS Force = .18333D-03 SwitMx=.10000D-02 MixMth= 2
 Mixed Optimization -- En-DIIS/RFO-DIIS
 Second derivative matrix not updated -- first step.
 ITU=  0
     Eigenvalues ---    0.00441   0.02520   0.02855   0.03431   0.04279
     Eigenvalues ---    0.04416   0.04667   0.04823   0.06483   0.06513
     Eigenvalues ---    0.06669   0.06962   0.07398   0.07560   0.07714
     Eigenvalues ---    0.08124   0.08928   0.21635   0.24713   0.24713
     Eigenvalues ---    0.24978   0.24978   0.30575   0.32423   0.46092
     Eigenvalues ---    0.46092   0.46234   0.462341000.000001000.00000
     Eigenvalues --- 1000.000001000.000001000.000001000.000001000.00000
     Eigenvalues --- 1000.000001000.000001000.000001000.000001000.00000
     Eigenvalues --- 1000.000001000.000001000.000001000.000001000.00000
     Eigenvalues --- 1000.000001000.000001000.000001000.000001000.00000
     Eigenvalues --- 1000.000001000.000001000.000001000.000001000.00000
     Eigenvalues --- 1000.000001000.000001000.000001000.000001000.00000
     Eigenvalues --- 1000.000001000.000001000.000001000.000001000.00000
     Eigenvalues --- 1000.000001000.000001000.000001000.000001000.00000
     Eigenvalues --- 1000.000001000.00000
 RFO step:  Lambda=-2.09994158D-05 EMin= 4.40686304D-03
 Linear search not attempted -- first point.
 Iteration  1 RMS(Cart)=  0.00153960 RMS(Int)=  0.00000515
 Iteration  2 RMS(Cart)=  0.00000355 RMS(Int)=  0.00000398
 Iteration  3 RMS(Cart)=  0.00000000 RMS(Int)=  0.00000398
 Iteration  1 RMS(Cart)=  0.00000021 RMS(Int)=  0.00000009
 ITry= 1 IFail=0 DXMaxC= 4.27D-03 DCOld= 1.00D+10 DXMaxT= 3.00D-01 DXLimC= 3.00D+00 Rises=F
 ClnCor:  largest displacement from symmetrization is 6.88D-13 for atom     8.
 Variable       Old X    -DE/DX   Delta X   Delta X   Delta X     New X
                                 (Linear)    (Quad)   (Total)
    R1        3.97400  -0.01828   0.00000   0.00000  -0.00000   3.97400
    R2        2.82973   0.00004   0.00000   0.00010   0.00010   2.82983
    R3        2.25965   0.00014   0.00000   0.00055   0.00055   2.26020
    R4        2.25965   0.00014   0.00000   0.00055   0.00055   2.26020
    R5        2.83871  -0.00026   0.00000  -0.00073  -0.00073   2.83798
    R6        1.90568  -0.00006   0.00000  -0.00014  -0.00014   1.90554
    R7        1.90568  -0.00006   0.00000  -0.00014  -0.00014   1.90554
    R8        3.78503  -0.01677   0.00000   0.00000   0.00000   3.78503
    R9        1.90728  -0.00012   0.00000  -0.00027  -0.00027   1.90701
   R10        1.90728  -0.00012   0.00000  -0.00027  -0.00027   1.90701
   R11        2.26643  -0.00002   0.00000  -0.00007  -0.00007   2.26636
   R12        2.26643  -0.00002   0.00000  -0.00007  -0.00007   2.26636
    A1        1.60143   0.00077   0.00000   0.00308   0.00308   1.60451
    A2        1.75706  -0.00021   0.00000   0.00113   0.00114   1.75820
    A3        1.75706  -0.00021   0.00000   0.00113   0.00114   1.75820
    A4        2.04527  -0.00015   0.00000  -0.00132  -0.00132   2.04394
    A5        2.04527  -0.00015   0.00000  -0.00132  -0.00132   2.04394
    A6        2.09800   0.00014   0.00000   0.00017   0.00016   2.09817
    A7        1.47354  -0.00025   0.00000  -0.00311  -0.00311   1.47043
    A8        1.95159  -0.00001   0.00000  -0.00172  -0.00171   1.94987
    A9        1.95159  -0.00001   0.00000  -0.00172  -0.00171   1.94987
   A10        2.05229   0.00014   0.00000   0.00232   0.00231   2.05459
   A11        2.05229   0.00014   0.00000   0.00232   0.00231   2.05459
   A12        1.93435  -0.00006   0.00000   0.00035   0.00033   1.93468
   A13        1.53934  -0.00086   0.00000  -0.00345  -0.00345   1.53589
   A14        2.04657   0.00028   0.00000   0.00224   0.00223   2.04880
   A15        2.04657   0.00028   0.00000   0.00224   0.00223   2.04880
   A16        1.93174   0.00015   0.00000  -0.00226  -0.00225   1.92949
   A17        1.93174   0.00015   0.00000  -0.00226  -0.00225   1.92949
   A18        1.92910  -0.00011   0.00000   0.00149   0.00148   1.93058
   A19        1.66887   0.00033   0.00000   0.00348   0.00348   1.67235
   A20        2.03361  -0.00000   0.00000   0.00018   0.00018   2.03379
   A21        2.03361  -0.00000   0.00000   0.00018   0.00018   2.03379
   A22        1.76686  -0.00015   0.00000  -0.00113  -0.00113   1.76573
   A23        1.76686  -0.00015   0.00000  -0.00113  -0.00113   1.76573
   A24        2.07881  -0.00000   0.00000  -0.00092  -0.00092   2.07789
    D1        0.00000  -0.00000   0.00000  -0.00000   0.00000   0.00000
    D2       -2.05121  -0.00005   0.00000  -0.00109  -0.00109  -2.05230
    D3        2.05121   0.00005   0.00000   0.00109   0.00109   2.05230
    D4        2.06111  -0.00000   0.00000  -0.00049  -0.00049   2.06062
    D5        0.00990  -0.00006   0.00000  -0.00158  -0.00158   0.00832
    D6       -2.17087   0.00005   0.00000   0.00060   0.00060  -2.17027
    D7       -2.06111   0.00000   0.00000   0.00049   0.00049  -2.06062
    D8        2.17087  -0.00005   0.00000  -0.00060  -0.00060   2.17027
    D9       -0.00990   0.00006   0.00000   0.00158   0.00158  -0.00832
   D10        0.00000   0.00000   0.00000   0.00000   0.00000   0.00000
   D11       -1.96196   0.00025   0.00000   0.00405   0.00406  -1.95791
   D12        1.96196  -0.00025   0.00000  -0.00405  -0.00406   1.95791
   D13       -1.79674  -0.00016   0.00000  -0.00273  -0.00273  -1.79947
   D14        2.52449   0.00010   0.00000   0.00132   0.00132   2.52581
   D15        0.16522  -0.00041   0.00000  -0.00678  -0.00679   0.15844
   D16        1.79674   0.00016   0.00000   0.00273   0.00273   1.79947
   D17       -0.16522   0.00041   0.00000   0.00678   0.00679  -0.15844
   D18       -2.52449  -0.00010   0.00000  -0.00132  -0.00132  -2.52581
   D19        0.00000   0.00000   0.00000   0.00000   0.00000   0.00000
   D20        1.84196   0.00001   0.00000   0.00065   0.00066   1.84262
   D21       -1.84196  -0.00001   0.00000  -0.00065  -0.00066  -1.84262
   D22        1.95017  -0.00013   0.00000  -0.00334  -0.00334   1.94684
   D23       -2.49105  -0.00012   0.00000  -0.00268  -0.00268  -2.49373
   D24        0.10821  -0.00014   0.00000  -0.00399  -0.00399   0.10422
   D25       -1.95017   0.00013   0.00000   0.00334   0.00334  -1.94684
   D26       -0.10821   0.00014   0.00000   0.00399   0.00399  -0.10422
   D27        2.49105   0.00012   0.00000   0.00268   0.00268   2.49373
   D28        0.00000  -0.00000   0.00000  -0.00000   0.00000   0.00000
   D29       -2.06795  -0.00006   0.00000  -0.00091  -0.00091  -2.06886
   D30        2.06795   0.00006   0.00000   0.00091   0.00091   2.06886
   D31        2.06910  -0.00003   0.00000   0.00062   0.00062   2.06972
   D32        0.00115  -0.00009   0.00000  -0.00029  -0.00029   0.00086
   D33       -2.14613   0.00003   0.00000   0.00153   0.00153  -2.14460
   D34       -2.06910   0.00003   0.00000  -0.00062  -0.00062  -2.06972
   D35        2.14613  -0.00003   0.00000  -0.00153  -0.00153   2.14460
   D36       -0.00115   0.00009   0.00000   0.00029   0.00029  -0.00086
         Item               Value     Threshold  Converged?
 Maximum Force            0.000605     0.002500     YES
 RMS     Force            0.000183     0.001667     YES
 Maximum Displacement     0.004273     0.010000     YES
 RMS     Displacement     0.001539     0.006667     YES
 Predicted change in Energy=-1.052024D-05
 Optimization completed.
    -- Stationary point found.
                           ----------------------------
                           !   Optimized Parameters   !
                           ! (Angstroms and Degrees)  !
 --------------------------                            --------------------------
 ! Name  Definition              Value          Derivative Info.                !
 --------------------------------------------------------------------------------
 ! R1    R(1,2)                  2.1029         -DE/DX =   -0.0183              !
 ! R2    R(1,3)                  1.4974         -DE/DX =    0.0                 !
 ! R3    R(1,11)                 1.1958         -DE/DX =    0.0001              !
 ! R4    R(1,12)                 1.1958         -DE/DX =    0.0001              !
 ! R5    R(2,4)                  1.5022         -DE/DX =   -0.0003              !
 ! R6    R(2,9)                  1.0084         -DE/DX =   -0.0001              !
 ! R7    R(2,10)                 1.0084         -DE/DX =   -0.0001              !
 ! R8    R(3,4)                  2.003          -DE/DX =   -0.0168              !
 ! R9    R(3,5)                  1.0093         -DE/DX =   -0.0001              !
 ! R10   R(3,6)                  1.0093         -DE/DX =   -0.0001              !
 ! R11   R(4,7)                  1.1993         -DE/DX =    0.0                 !
 ! R12   R(4,8)                  1.1993         -DE/DX =    0.0                 !
 ! A1    A(2,1,3)               91.7551         -DE/DX =    0.0008              !
 ! A2    A(2,1,11)             100.6723         -DE/DX =   -0.0002              !
 ! A3    A(2,1,12)             100.6723         -DE/DX =   -0.0002              !
 ! A4    A(3,1,11)             117.1851         -DE/DX =   -0.0001              !
 ! A5    A(3,1,12)             117.1851         -DE/DX =   -0.0001              !
 ! A6    A(11,1,12)            120.2068         -DE/DX =    0.0001              !
 ! A7    A(1,2,4)               84.4278         -DE/DX =   -0.0002              !
 ! A8    A(1,2,9)              111.8176         -DE/DX =    0.0                 !
 ! A9    A(1,2,10)             111.8176         -DE/DX =    0.0                 !
 ! A10   A(4,2,9)              117.5873         -DE/DX =    0.0001              !
 ! A11   A(4,2,10)             117.5873         -DE/DX =    0.0001              !
 ! A12   A(9,2,10)             110.83           -DE/DX =   -0.0001              !
 ! A13   A(1,3,4)               88.1979         -DE/DX =   -0.0009              !
 ! A14   A(1,3,5)              117.2599         -DE/DX =    0.0003              !
 ! A15   A(1,3,6)              117.2599         -DE/DX =    0.0003              !
 ! A16   A(4,3,5)              110.6806         -DE/DX =    0.0001              !
 ! A17   A(4,3,6)              110.6806         -DE/DX =    0.0001              !
 ! A18   A(5,3,6)              110.5293         -DE/DX =   -0.0001              !
 ! A19   A(2,4,3)               95.6191         -DE/DX =    0.0003              !
 ! A20   A(2,4,7)              116.5171         -DE/DX =    0.0                 !
 ! A21   A(2,4,8)              116.5171         -DE/DX =    0.0                 !
 ! A22   A(3,4,7)              101.2336         -DE/DX =   -0.0001              !
 ! A23   A(3,4,8)              101.2336         -DE/DX =   -0.0001              !
 ! A24   A(7,4,8)              119.1073         -DE/DX =    0.0                 !
 ! D1    D(3,1,2,4)              0.0            -DE/DX =    0.0                 !
 ! D2    D(3,1,2,9)           -117.5254         -DE/DX =   -0.0001              !
 ! D3    D(3,1,2,10)           117.5254         -DE/DX =    0.0001              !
 ! D4    D(11,1,2,4)           118.0928         -DE/DX =    0.0                 !
 ! D5    D(11,1,2,9)             0.5674         -DE/DX =   -0.0001              !
 ! D6    D(11,1,2,10)         -124.3817         -DE/DX =    0.0                 !
 ! D7    D(12,1,2,4)          -118.0928         -DE/DX =    0.0                 !
 ! D8    D(12,1,2,9)           124.3817         -DE/DX =    0.0                 !
 ! D9    D(12,1,2,10)           -0.5674         -DE/DX =    0.0001              !
 ! D10   D(2,1,3,4)              0.0            -DE/DX =    0.0                 !
 ! D11   D(2,1,3,5)           -112.4121         -DE/DX =    0.0003              !
 ! D12   D(2,1,3,6)            112.4121         -DE/DX =   -0.0003              !
 ! D13   D(11,1,3,4)          -102.9455         -DE/DX =   -0.0002              !
 ! D14   D(11,1,3,5)           144.6424         -DE/DX =    0.0001              !
 ! D15   D(11,1,3,6)             9.4667         -DE/DX =   -0.0004              !
 ! D16   D(12,1,3,4)           102.9455         -DE/DX =    0.0002              !
 ! D17   D(12,1,3,5)            -9.4667         -DE/DX =    0.0004              !
 ! D18   D(12,1,3,6)          -144.6424         -DE/DX =   -0.0001              !
 ! D19   D(1,2,4,3)              0.0            -DE/DX =    0.0                 !
 ! D20   D(1,2,4,7)            105.5367         -DE/DX =    0.0                 !
 ! D21   D(1,2,4,8)           -105.5367         -DE/DX =    0.0                 !
 ! D22   D(9,2,4,3)            111.7368         -DE/DX =   -0.0001              !
 ! D23   D(9,2,4,7)           -142.7265         -DE/DX =   -0.0001              !
 ! D24   D(9,2,4,8)              6.2001         -DE/DX =   -0.0001              !
 ! D25   D(10,2,4,3)          -111.7368         -DE/DX =    0.0001              !
 ! D26   D(10,2,4,7)            -6.2001         -DE/DX =    0.0001              !
 ! D27   D(10,2,4,8)           142.7265         -DE/DX =    0.0001              !
 ! D28   D(1,3,4,2)              0.0            -DE/DX =    0.0                 !
 ! D29   D(1,3,4,7)           -118.4848         -DE/DX =   -0.0001              !
 ! D30   D(1,3,4,8)            118.4848         -DE/DX =    0.0001              !
 ! D31   D(5,3,4,2)            118.5509         -DE/DX =    0.0                 !
 ! D32   D(5,3,4,7)              0.0661         -DE/DX =   -0.0001              !
 ! D33   D(5,3,4,8)           -122.9643         -DE/DX =    0.0                 !
 ! D34   D(6,3,4,2)           -118.5509         -DE/DX =    0.0                 !
 ! D35   D(6,3,4,7)            122.9643         -DE/DX =    0.0                 !
 ! D36   D(6,3,4,8)             -0.0661         -DE/DX =    0.0001              !
 --------------------------------------------------------------------------------
 Lowest energy point so far.  Saving SCF results.
 Iteration  1 RMS(Cart)=  0.02712041 RMS(Int)=  0.00814647
 Iteration  2 RMS(Cart)=  0.00009307 RMS(Int)=  0.00814620
 Iteration  3 RMS(Cart)=  0.00000041 RMS(Int)=  0.00814620
 Iteration  1 RMS(Cart)=  0.00509961 RMS(Int)=  0.00217947
 Iteration  2 RMS(Cart)=  0.00136441 RMS(Int)=  0.00238347
 Iteration  3 RMS(Cart)=  0.00036505 RMS(Int)=  0.00249914
 Iteration  4 RMS(Cart)=  0.00009767 RMS(Int)=  0.00253365
 Iteration  5 RMS(Cart)=  0.00002613 RMS(Int)=  0.00254312
 Iteration  6 RMS(Cart)=  0.00000699 RMS(Int)=  0.00254567
 Iteration  7 RMS(Cart)=  0.00000187 RMS(Int)=  0.00254636
 Iteration  8 RMS(Cart)=  0.00000050 RMS(Int)=  0.00254654
 GradGradGradGradGradGradGradGradGradGradGradGradGradGradGradGradGradGrad

 Leave Link  103 at Thu Mar  9 15:07:14 2017, MaxMem=  1127874560 cpu:         0.1
 (Enter /share/apps/g09RelE.01/g09/l202.exe)
                          Input orientation:                          
 ---------------------------------------------------------------------
 Center     Atomic      Atomic             Coordinates (Angstroms)
 Number     Number       Type             X           Y           Z
 ---------------------------------------------------------------------
      1          5           0       -0.035765   -1.252743    0.000000
      2          7           0        1.265639    0.399149   -0.000000
      3          7           0       -1.273297   -0.407911    0.000000
      4          5           0        0.026357    1.245359    0.000000
      5          1           0       -1.850306   -0.417960    0.827854
      6          1           0       -1.850306   -0.417960   -0.827854
      7          1           0       -0.260403    1.784352    1.032276
      8          1           0       -0.260403    1.784352   -1.032276
      9          1           0        1.834933    0.413003   -0.832183
     10          1           0        1.834933    0.413003    0.832183
     11          1           0        0.272098   -1.760626   -1.038177
     12          1           0        0.272098   -1.760626    1.038177
 ---------------------------------------------------------------------
                    Distance matrix (angstroms):
                    1          2          3          4          5
     1  B    0.000000
     2  N    2.102950   0.000000
     3  N    1.498408   2.664121   0.000000
     4  B    2.498874   1.500630   2.102951   0.000000
     5  H    2.162120   3.325977   1.009149   2.640802   0.000000
     6  H    2.162120   3.325977   1.009149   2.640802   1.655707
     7  H    3.215587   2.305035   2.626321   1.199308   2.723923
     8  H    3.215587   2.305035   2.626321   1.199308   3.292119
     9  H    2.639460   1.008373   3.320771   2.157844   4.126404
    10  H    2.639460   1.008373   3.320771   2.157844   3.777765
    11  H    1.196050   2.594139   2.301281   3.189694   3.128805
    12  H    1.196050   2.594139   2.301281   3.189694   2.520236
                    6          7          8          9         10
     6  H    0.000000
     7  H    3.292119   0.000000
     8  H    2.723923   2.064552   0.000000
     9  H    3.777765   3.122057   2.512184   0.000000
    10  H    4.126404   2.512184   3.122057   1.664366   0.000000
    11  H    2.520236   4.139710   3.584754   2.685060   3.265787
    12  H    3.128805   3.584754   4.139710   3.265787   2.685060
                   11         12
    11  H    0.000000
    12  H    2.076353   0.000000
 Stoichiometry    B2H8N2
 Framework group  CS[SG(B2N2),X(H8)]
 Deg. of freedom    17
 Full point group                 CS      NOp   2
 RotChk:  IX=0 Diff= 3.37D-02
 Largest Abelian subgroup         CS      NOp   2
 Largest concise Abelian subgroup CS      NOp   2
                         Standard orientation:                         
 ---------------------------------------------------------------------
 Center     Atomic      Atomic             Coordinates (Angstroms)
 Number     Number       Type             X           Y           Z
 ---------------------------------------------------------------------
      1          5           0       -0.002571   -1.251262    0.000000
      2          7           0        1.259096    0.431174    0.000000
      3          7           0       -1.259885   -0.436162    0.000000
      4          5           0       -0.000000    1.247611    0.000000
      5          1           0       -1.836491   -0.459959    0.827854
      6          1           0       -1.836491   -0.459959   -0.827854
      7          1           0       -0.299524    1.779617    1.032276
      8          1           0       -0.299524    1.779617   -1.032276
      9          1           0        1.827898    0.458592   -0.832183
     10          1           0        1.827898    0.458592    0.832183
     11          1           0        0.317308   -1.751664   -1.038177
     12          1           0        0.317308   -1.751664    1.038177
 ---------------------------------------------------------------------
 Rotational constants (GHZ):     10.9724155      6.3538818      4.5365201
 Leave Link  202 at Thu Mar  9 15:07:15 2017, MaxMem=  1127874560 cpu:         0.0
 (Enter /share/apps/g09RelE.01/g09/l301.exe)
 Standard basis: 6-311G(d,p) (5D, 7F)
 Ernie: Thresh=  0.10000D-02 Tol=  0.10000D-05 Strict=F.
 There are    80 symmetry adapted cartesian basis functions of A'  symmetry.
 There are    44 symmetry adapted cartesian basis functions of A"  symmetry.
 There are    76 symmetry adapted basis functions of A'  symmetry.
 There are    44 symmetry adapted basis functions of A"  symmetry.
   120 basis functions,   192 primitive gaussians,   124 cartesian basis functions
    16 alpha electrons       16 beta electrons
       nuclear repulsion energy       114.8341405239 Hartrees.
 IExCor= 4639 DFT=T Ex+Corr=wB97XD ExCW=0 ScaHFX=  1.000000
 ScaDFX=  1.000000  1.000000  1.000000  1.000000 ScalE2=  1.000000  1.000000
 IRadAn=      5 IRanWt=     -1 IRanGd=            0 ICorTp=0 IEmpDi=121
  HFx wShort=  0.000000 wLong=  0.200000 cFull=  0.222036 cShort=  0.000000 cLong=  0.777964
  DFx wShort=  0.000000 wLong=  0.200000 cFull=  0.000000 cShort=  0.000000 cLong=  1.000000
 NAtoms=   12 NActive=   12 NUniq=    8 SFac= 2.25D+00 NAtFMM=   60 NAOKFM=F Big=F
 Integral buffers will be    131072 words long.
 Raffenetti 2 integral format.
 Two-electron integral symmetry is turned on.
 R6Disp:  Grimme-D2 Dispersion energy=       -0.0054817921 Hartrees.
 Nuclear repulsion after empirical dispersion term =      114.8286587318 Hartrees.
 Leave Link  301 at Thu Mar  9 15:07:15 2017, MaxMem=  1127874560 cpu:         0.3
 (Enter /share/apps/g09RelE.01/g09/l302.exe)
 NPDir=0 NMtPBC=     1 NCelOv=     1 NCel=       1 NClECP=     1 NCelD=      1
         NCelK=      1 NCelE2=     1 NClLst=     1 CellRange=     0.0.
 One-electron integrals computed using PRISM.
 One-electron integral symmetry used in STVInt
 NBasis=   120 RedAO= T EigKep=  5.81D-03  NBF=    76    44
 NBsUse=   120 1.00D-06 EigRej= -1.00D+00 NBFU=    76    44
 Precomputing XC quadrature grid using
 IXCGrd= 4 IRadAn=           5 IRanWt=          -1 IRanGd=           0 AccXCQ= 0.00D+00.
 Generated NRdTot=       0 NPtTot=           0 NUsed=           0 NTot=          32
 NSgBfM=   124   124   124   124   124 MxSgAt=    12 MxSgA2=    12.
 Leave Link  302 at Thu Mar  9 15:07:15 2017, MaxMem=  1127874560 cpu:         1.3
 (Enter /share/apps/g09RelE.01/g09/l303.exe)
 DipDrv:  MaxL=1.
 Leave Link  303 at Thu Mar  9 15:07:15 2017, MaxMem=  1127874560 cpu:         0.2
 (Enter /share/apps/g09RelE.01/g09/l401.exe)
 Initial guess from the checkpoint file:  "AB-AB-NHscan.chk"
 B after Tr=     0.000000    0.000000   -0.000000
         Rot=    0.999920   -0.000000    0.000000   -0.012688 Ang=  -1.45 deg.
 Guess basis will be translated and rotated to current coordinates.
 JPrj=2 DoOrth=T DoCkMO=T.
 Initial guess orbital symmetries:
       Occupied  (A') (A') (A') (A') (A') (A') (A') (A") (A') (A")
                 (A') (A') (A') (A") (A") (A')
       Virtual   (A') (A') (A') (A') (A') (A') (A') (A') (A') (A')
                 (A') (A') (A') (A') (A') (A') (A') (A') (A') (A')
                 (A') (A') (A') (A') (A') (A') (A') (A') (A') (A')
                 (A') (A') (A') (A') (A') (A') (A') (A') (A') (A')
                 (A') (A') (A') (A') (A') (A') (A') (A') (A') (A')
                 (A') (A') (A') (A') (A') (A') (A') (A') (A') (A')
                 (A') (A') (A') (A') (A") (A") (A") (A") (A") (A")
                 (A") (A") (A") (A") (A") (A") (A") (A") (A") (A")
                 (A") (A") (A") (A") (A") (A") (A") (A") (A") (A")
                 (A") (A") (A") (A") (A") (A") (A") (A") (A") (A")
                 (A") (A") (A") (A")
 The electronic state of the initial guess is 1-A'.
 Generating alternative initial guess.
 ExpMin= 9.89D-02 ExpMax= 6.29D+03 ExpMxC= 9.49D+02 IAcc=2 IRadAn=         4 AccDes= 0.00D+00
 Harris functional with IExCor= 4639 and IRadAn=       4 diagonalized for initial guess.
 HarFok:  IExCor= 4639 AccDes= 0.00D+00 IRadAn=         4 IDoV= 1 UseB2=F ITyADJ=14
 ICtDFT=  3500011 ScaDFX=  1.000000  1.000000  1.000000  1.000000
 FoFCou: FMM=F IPFlag=           0 FMFlag=      100000 FMFlg1=           0
         NFxFlg=           0 DoJE=T BraDBF=F KetDBF=T FulRan=T
         wScrn=  0.000000 ICntrl=     500 IOpCl=  0 I1Cent=   200000004 NGrid=           0
         NMat0=    1 NMatS0=      1 NMatT0=    0 NMatD0=    1 NMtDS0=    0 NMtDT0=    0
 Petite list used in FoFCou.
 Harris En= -156.192568536770    
 Leave Link  401 at Thu Mar  9 15:07:16 2017, MaxMem=  1127874560 cpu:         2.7
 (Enter /share/apps/g09RelE.01/g09/l502.exe)
 Closed shell SCF:
 Using DIIS extrapolation, IDIIS=  1040.
 Integral symmetry usage will be decided dynamically.
 Keep R1 ints in memory in symmetry-blocked form, NReq=79321962.
 IVT=       66538 IEndB=       66538 NGot=  1127874560 MDV=  1114529905
 LenX=  1114529905 LenY=  1114514088
 Requested convergence on RMS density matrix=1.00D-08 within 128 cycles.
 Requested convergence on MAX density matrix=1.00D-06.
 Requested convergence on             energy=1.00D-06.
 No special actions if energy rises.
 FoFCou: FMM=F IPFlag=           0 FMFlag=           0 FMFlg1=           0
         NFxFlg=           0 DoJE=F BraDBF=F KetDBF=F FulRan=T
         wScrn=  0.000000 ICntrl=     600 IOpCl=  0 I1Cent=           0 NGrid=           0
         NMat0=    1 NMatS0=   7260 NMatT0=    0 NMatD0=    1 NMtDS0=    0 NMtDT0=    0
 Petite list used in FoFCou.
 Integral accuracy reduced to 1.0D-05 until final iterations.

 Cycle   1  Pass 0  IDiag  1:
 E= -164.063616602491    
 DIIS: error= 2.45D-03 at cycle   1 NSaved=   1.
 NSaved= 1 IEnMin= 1 EnMin= -164.063616602491     IErMin= 1 ErrMin= 2.45D-03
 ErrMax= 2.45D-03  0.00D+00 EMaxC= 1.00D-01 BMatC= 6.56D-04 BMatP= 6.56D-04
 IDIUse=3 WtCom= 9.76D-01 WtEn= 2.45D-02
 Coeff-Com:  0.100D+01
 Coeff-En:   0.100D+01
 Coeff:      0.100D+01
 Gap=     0.775 Goal=   None    Shift=    0.000
 GapD=    0.775 DampG=2.000 DampE=1.000 DampFc=2.0000 IDamp=-1.
 RMSDP=2.56D-04 MaxDP=5.50D-03              OVMax= 1.46D-02

 Cycle   2  Pass 0  IDiag  1:
 E= -164.064876854092     Delta-E=       -0.001260251601 Rises=F Damp=F
 DIIS: error= 7.89D-04 at cycle   2 NSaved=   2.
 NSaved= 2 IEnMin= 2 EnMin= -164.064876854092     IErMin= 2 ErrMin= 7.89D-04
 ErrMax= 7.89D-04  0.00D+00 EMaxC= 1.00D-01 BMatC= 4.83D-05 BMatP= 6.56D-04
 IDIUse=3 WtCom= 9.92D-01 WtEn= 7.89D-03
 Coeff-Com: -0.971D-01 0.110D+01
 Coeff-En:   0.000D+00 0.100D+01
 Coeff:     -0.963D-01 0.110D+01
 Gap=     0.415 Goal=   None    Shift=    0.000
 RMSDP=8.75D-05 MaxDP=1.21D-03 DE=-1.26D-03 OVMax= 6.42D-03

 Cycle   3  Pass 0  IDiag  1:
 E= -164.064986793191     Delta-E=       -0.000109939099 Rises=F Damp=F
 DIIS: error= 5.27D-04 at cycle   3 NSaved=   3.
 NSaved= 3 IEnMin= 3 EnMin= -164.064986793191     IErMin= 3 ErrMin= 5.27D-04
 ErrMax= 5.27D-04  0.00D+00 EMaxC= 1.00D-01 BMatC= 2.35D-05 BMatP= 4.83D-05
 IDIUse=3 WtCom= 9.95D-01 WtEn= 5.27D-03
 Coeff-Com: -0.999D-01 0.460D+00 0.640D+00
 Coeff-En:   0.000D+00 0.000D+00 0.100D+01
 Coeff:     -0.993D-01 0.458D+00 0.642D+00
 Gap=     0.415 Goal=   None    Shift=    0.000
 RMSDP=3.25D-05 MaxDP=8.77D-04 DE=-1.10D-04 OVMax= 2.42D-03

 Cycle   4  Pass 0  IDiag  1:
 E= -164.065011353431     Delta-E=       -0.000024560240 Rises=F Damp=F
 DIIS: error= 1.87D-04 at cycle   4 NSaved=   4.
 NSaved= 4 IEnMin= 4 EnMin= -164.065011353431     IErMin= 4 ErrMin= 1.87D-04
 ErrMax= 1.87D-04  0.00D+00 EMaxC= 1.00D-01 BMatC= 2.08D-06 BMatP= 2.35D-05
 IDIUse=3 WtCom= 9.98D-01 WtEn= 1.87D-03
 Coeff-Com: -0.832D-02-0.528D-01 0.180D+00 0.882D+00
 Coeff-En:   0.000D+00 0.000D+00 0.000D+00 0.100D+01
 Coeff:     -0.830D-02-0.527D-01 0.179D+00 0.882D+00
 Gap=     0.415 Goal=   None    Shift=    0.000
 RMSDP=1.80D-05 MaxDP=3.32D-04 DE=-2.46D-05 OVMax= 1.48D-03

 Cycle   5  Pass 0  IDiag  1:
 E= -164.065015638596     Delta-E=       -0.000004285165 Rises=F Damp=F
 DIIS: error= 7.34D-05 at cycle   5 NSaved=   5.
 NSaved= 5 IEnMin= 5 EnMin= -164.065015638596     IErMin= 5 ErrMin= 7.34D-05
 ErrMax= 7.34D-05  0.00D+00 EMaxC= 1.00D-01 BMatC= 1.58D-07 BMatP= 2.08D-06
 IDIUse=1 WtCom= 1.00D+00 WtEn= 0.00D+00
 Coeff-Com:  0.954D-02-0.619D-01-0.528D-01 0.128D+00 0.977D+00
 Coeff:      0.954D-02-0.619D-01-0.528D-01 0.128D+00 0.977D+00
 Gap=     0.415 Goal=   None    Shift=    0.000
 RMSDP=8.02D-06 MaxDP=1.28D-04 DE=-4.29D-06 OVMax= 7.21D-04

 Initial convergence to 1.0D-05 achieved.  Increase integral accuracy.
 Cycle   6  Pass 1  IDiag  1:
 E= -164.065039711635     Delta-E=       -0.000024073039 Rises=F Damp=F
 DIIS: error= 3.27D-05 at cycle   1 NSaved=   1.
 NSaved= 1 IEnMin= 1 EnMin= -164.065039711635     IErMin= 1 ErrMin= 3.27D-05
 ErrMax= 3.27D-05  0.00D+00 EMaxC= 1.00D-01 BMatC= 1.80D-07 BMatP= 1.80D-07
 IDIUse=1 WtCom= 1.00D+00 WtEn= 0.00D+00
 Coeff-Com:  0.100D+01
 Coeff:      0.100D+01
 Gap=     0.415 Goal=   None    Shift=    0.000
 RMSDP=8.02D-06 MaxDP=1.28D-04 DE=-2.41D-05 OVMax= 1.75D-04

 Cycle   7  Pass 1  IDiag  1:
 E= -164.065039900688     Delta-E=       -0.000000189053 Rises=F Damp=F
 DIIS: error= 1.04D-05 at cycle   2 NSaved=   2.
 NSaved= 2 IEnMin= 2 EnMin= -164.065039900688     IErMin= 2 ErrMin= 1.04D-05
 ErrMax= 1.04D-05  0.00D+00 EMaxC= 1.00D-01 BMatC= 7.38D-09 BMatP= 1.80D-07
 IDIUse=1 WtCom= 1.00D+00 WtEn= 0.00D+00
 Coeff-Com: -0.794D-02 0.101D+01
 Coeff:     -0.794D-02 0.101D+01
 Gap=     0.415 Goal=   None    Shift=    0.000
 RMSDP=1.14D-06 MaxDP=1.66D-05 DE=-1.89D-07 OVMax= 8.72D-05

 Cycle   8  Pass 1  IDiag  1:
 E= -164.065039916187     Delta-E=       -0.000000015498 Rises=F Damp=F
 DIIS: error= 4.38D-06 at cycle   3 NSaved=   3.
 NSaved= 3 IEnMin= 3 EnMin= -164.065039916187     IErMin= 3 ErrMin= 4.38D-06
 ErrMax= 4.38D-06  0.00D+00 EMaxC= 1.00D-01 BMatC= 1.93D-09 BMatP= 7.38D-09
 IDIUse=1 WtCom= 1.00D+00 WtEn= 0.00D+00
 Coeff-Com: -0.367D-01 0.264D+00 0.773D+00
 Coeff:     -0.367D-01 0.264D+00 0.773D+00
 Gap=     0.415 Goal=   None    Shift=    0.000
 RMSDP=4.29D-07 MaxDP=8.36D-06 DE=-1.55D-08 OVMax= 3.38D-05

 Cycle   9  Pass 1  IDiag  1:
 E= -164.065039919373     Delta-E=       -0.000000003187 Rises=F Damp=F
 DIIS: error= 2.94D-06 at cycle   4 NSaved=   4.
 NSaved= 4 IEnMin= 4 EnMin= -164.065039919373     IErMin= 4 ErrMin= 2.94D-06
 ErrMax= 2.94D-06  0.00D+00 EMaxC= 1.00D-01 BMatC= 3.74D-10 BMatP= 1.93D-09
 IDIUse=1 WtCom= 1.00D+00 WtEn= 0.00D+00
 Coeff-Com: -0.103D-01-0.421D-01 0.241D+00 0.811D+00
 Coeff:     -0.103D-01-0.421D-01 0.241D+00 0.811D+00
 Gap=     0.415 Goal=   None    Shift=    0.000
 RMSDP=2.47D-07 MaxDP=4.25D-06 DE=-3.19D-09 OVMax= 2.32D-05

 Cycle  10  Pass 1  IDiag  1:
 E= -164.065039920238     Delta-E=       -0.000000000864 Rises=F Damp=F
 DIIS: error= 1.32D-06 at cycle   5 NSaved=   5.
 NSaved= 5 IEnMin= 5 EnMin= -164.065039920238     IErMin= 5 ErrMin= 1.32D-06
 ErrMax= 1.32D-06  0.00D+00 EMaxC= 1.00D-01 BMatC= 7.44D-11 BMatP= 3.74D-10
 IDIUse=1 WtCom= 1.00D+00 WtEn= 0.00D+00
 Coeff-Com:  0.453D-02-0.685D-01-0.916D-01 0.261D+00 0.894D+00
 Coeff:      0.453D-02-0.685D-01-0.916D-01 0.261D+00 0.894D+00
 Gap=     0.415 Goal=   None    Shift=    0.000
 RMSDP=1.43D-07 MaxDP=1.93D-06 DE=-8.64D-10 OVMax= 1.38D-05

 Cycle  11  Pass 1  IDiag  1:
 E= -164.065039920446     Delta-E=       -0.000000000208 Rises=F Damp=F
 DIIS: error= 3.82D-07 at cycle   6 NSaved=   6.
 NSaved= 6 IEnMin= 6 EnMin= -164.065039920446     IErMin= 6 ErrMin= 3.82D-07
 ErrMax= 3.82D-07  0.00D+00 EMaxC= 1.00D-01 BMatC= 4.69D-12 BMatP= 7.44D-11
 IDIUse=1 WtCom= 1.00D+00 WtEn= 0.00D+00
 Coeff-Com:  0.169D-02-0.568D-02-0.463D-01-0.521D-01 0.138D+00 0.964D+00
 Coeff:      0.169D-02-0.568D-02-0.463D-01-0.521D-01 0.138D+00 0.964D+00
 Gap=     0.415 Goal=   None    Shift=    0.000
 RMSDP=4.73D-08 MaxDP=5.99D-07 DE=-2.08D-10 OVMax= 4.69D-06

 Cycle  12  Pass 1  IDiag  1:
 E= -164.065039920462     Delta-E=       -0.000000000017 Rises=F Damp=F
 DIIS: error= 8.76D-08 at cycle   7 NSaved=   7.
 NSaved= 7 IEnMin= 7 EnMin= -164.065039920462     IErMin= 7 ErrMin= 8.76D-08
 ErrMax= 8.76D-08  0.00D+00 EMaxC= 1.00D-01 BMatC= 8.01D-13 BMatP= 4.69D-12
 IDIUse=1 WtCom= 1.00D+00 WtEn= 0.00D+00
 Coeff-Com:  0.125D-03 0.443D-02-0.694D-02-0.411D-01-0.316D-01 0.341D+00
 Coeff-Com:  0.734D+00
 Coeff:      0.125D-03 0.443D-02-0.694D-02-0.411D-01-0.316D-01 0.341D+00
 Coeff:      0.734D+00
 Gap=     0.415 Goal=   None    Shift=    0.000
 RMSDP=9.27D-09 MaxDP=1.91D-07 DE=-1.65D-11 OVMax= 8.52D-07

 SCF Done:  E(RwB97XD) =  -164.065039920     A.U. after   12 cycles
            NFock= 12  Conv=0.93D-08     -V/T= 2.0056
 KE= 1.631574884522D+02 PE=-6.107630794552D+02 EE= 1.687118923508D+02
 Leave Link  502 at Thu Mar  9 15:07:30 2017, MaxMem=  1127874560 cpu:        56.6
 (Enter /share/apps/g09RelE.01/g09/l701.exe)
 Compute integral first derivatives.
 ... and contract with generalized density number  0.
 R6Disp: Adding Grimme-D2 dispersion energy 1st derivatives to the gradient.
 Leave Link  701 at Thu Mar  9 15:07:30 2017, MaxMem=  1127874560 cpu:         0.8
 (Enter /share/apps/g09RelE.01/g09/l702.exe)
 L702 exits ... SP integral derivatives will be done elsewhere.
 Leave Link  702 at Thu Mar  9 15:07:31 2017, MaxMem=  1127874560 cpu:         0.1
 (Enter /share/apps/g09RelE.01/g09/l703.exe)
 Compute integral first derivatives, UseDBF=F ICtDFT=           0.
 Integral derivatives from FoFJK, PRISM(SPDF).
 Calling FoFJK, ICntrl=      2127 FMM=F ISym2X=1 I1Cent= 0 IOpClX= 0 NMat=1 NMatS=1 NMatT=0.
 FoFJK:  IHMeth= 1 ICntrl=    2127 DoSepK=T KAlg= 0 I1Cent=   0 FoldK=F
 IRaf=         1 NMat=   1 IRICut=       1 DoRegI=T DoRafI=F ISym2E= 1.
 FoFCou: FMM=F IPFlag=           0 FMFlag=      100000 FMFlg1=         800
         NFxFlg=           0 DoJE=F BraDBF=F KetDBF=F FulRan=T
         wScrn=  0.000000 ICntrl=    2527 IOpCl=  0 I1Cent=           0 NGrid=           0
         NMat0=    1 NMatS0=      1 NMatT0=    0 NMatD0=    1 NMtDS0=    0 NMtDT0=    0
 Petite list used in FoFCou.
 Leave Link  703 at Thu Mar  9 15:07:36 2017, MaxMem=  1127874560 cpu:        19.9
 (Enter /share/apps/g09RelE.01/g09/l716.exe)
 Dipole        =-2.14295033D-02-2.10521399D-02 2.22044605D-16
 ***** Axes restored to original set *****
 -------------------------------------------------------------------
 Center     Atomic                   Forces (Hartrees/Bohr)
 Number     Number              X              Y              Z
 -------------------------------------------------------------------
      1        5           0.005041411    0.015591897   -0.000000000
      2        7          -0.014432406   -0.008418115   -0.000000000
      3        7           0.010782338    0.010263163   -0.000000000
      4        5          -0.002003930   -0.011628746    0.000000000
      5        1           0.001131390    0.000492859    0.000449942
      6        1           0.001131390    0.000492859   -0.000449942
      7        1          -0.001662306   -0.002663020   -0.000105052
      8        1          -0.001662306   -0.002663020    0.000105052
      9        1           0.000293611   -0.000664727    0.000143689
     10        1           0.000293611   -0.000664727   -0.000143689
     11        1           0.000543599   -0.000069213   -0.000087773
     12        1           0.000543599   -0.000069213    0.000087773
 -------------------------------------------------------------------
 Cartesian Forces:  Max     0.015591897 RMS     0.005091968
 Leave Link  716 at Thu Mar  9 15:07:36 2017, MaxMem=  1127874560 cpu:         0.1
 (Enter /share/apps/g09RelE.01/g09/l103.exe)

 GradGradGradGradGradGradGradGradGradGradGradGradGradGradGradGradGradGrad
 Berny optimization.
 FormGI is forming the generalized inverse of G from B-inverse, IUseBI=4.
 Internal  Forces:  Max     0.017264371 RMS     0.002923953
 Search for a local minimum.
 Step number   1 out of a maximum of   82 on scan point     2 out of     2
 All quantities printed in internal units (Hartrees-Bohrs-Radians)
 RMS Force = .10305D-02 SwitMx=.10000D-02 MixMth= 1
 Mixed Optimization -- RFO/linear search
 Second derivative matrix not updated -- first step.
 ITU=  0
     Eigenvalues ---    0.00434   0.02528   0.02866   0.03408   0.04329
     Eigenvalues ---    0.04568   0.04601   0.04660   0.06512   0.06520
     Eigenvalues ---    0.06736   0.06964   0.07377   0.07554   0.07636
     Eigenvalues ---    0.08200   0.08852   0.21633   0.24713   0.24713
     Eigenvalues ---    0.24978   0.24978   0.30642   0.32429   0.46092
     Eigenvalues ---    0.46092   0.46234   0.462341000.000001000.00000
     Eigenvalues --- 1000.000001000.000001000.000001000.000001000.00000
     Eigenvalues --- 1000.000001000.000001000.000001000.000001000.00000
     Eigenvalues --- 1000.000001000.000001000.000001000.000001000.00000
     Eigenvalues --- 1000.000001000.000001000.000001000.000001000.00000
     Eigenvalues --- 1000.000001000.000001000.000001000.000001000.00000
     Eigenvalues --- 1000.000001000.000001000.000001000.000001000.00000
     Eigenvalues --- 1000.000001000.000001000.000001000.000001000.00000
     Eigenvalues --- 1000.000001000.000001000.000001000.000001000.00000
     Eigenvalues --- 1000.000001000.00000
 RFO step:  Lambda=-6.11416328D-04 EMin= 4.33835934D-03
 Linear search not attempted -- first point.
 Iteration  1 RMS(Cart)=  0.01065181 RMS(Int)=  0.00023253
 Iteration  2 RMS(Cart)=  0.00016332 RMS(Int)=  0.00016651
 Iteration  3 RMS(Cart)=  0.00000002 RMS(Int)=  0.00016651
 Iteration  1 RMS(Cart)=  0.00000543 RMS(Int)=  0.00000232
 Iteration  2 RMS(Cart)=  0.00000146 RMS(Int)=  0.00000254
 Iteration  3 RMS(Cart)=  0.00000039 RMS(Int)=  0.00000267
 ITry= 1 IFail=0 DXMaxC= 4.23D-02 DCOld= 1.00D+10 DXMaxT= 3.00D-01 DXLimC= 3.00D+00 Rises=F
 ClnCor:  largest displacement from symmetrization is 8.06D-10 for atom     8.
 Variable       Old X    -DE/DX   Delta X   Delta X   Delta X     New X
                                 (Linear)    (Quad)   (Total)
    R1        3.97400  -0.01558   0.00000   0.00000  -0.00000   3.97400
    R2        2.83158  -0.00433   0.00000  -0.01382  -0.01379   2.81779
    R3        2.26021   0.00025   0.00000   0.00098   0.00098   2.26119
    R4        2.26021   0.00025   0.00000   0.00098   0.00098   2.26119
    R5        2.83578  -0.00526   0.00000  -0.01573  -0.01577   2.82002
    R6        1.90555   0.00004   0.00000   0.00008   0.00008   1.90563
    R7        1.90555   0.00004   0.00000   0.00008   0.00008   1.90563
[...]
 ! A17   A(4,3,6)              109.7246         -DE/DX =    0.0                 !
 ! A18   A(5,3,6)              111.5046         -DE/DX =    0.0                 !
 ! A19   A(2,4,3)               95.1962         -DE/DX =   -0.0001              !
 ! A20   A(2,4,7)              117.2673         -DE/DX =    0.0                 !
 ! A21   A(2,4,8)              117.2673         -DE/DX =    0.0                 !
 ! A22   A(3,4,7)               99.0003         -DE/DX =    0.0                 !
 ! A23   A(3,4,8)               99.0003         -DE/DX =    0.0                 !
 ! A24   A(7,4,8)              120.08           -DE/DX =    0.0                 !
 ! D1    D(3,1,2,4)              0.0            -DE/DX =    0.0                 !
 ! D2    D(3,1,2,9)           -118.5918         -DE/DX =    0.0                 !
 ! D3    D(3,1,2,10)           118.5918         -DE/DX =    0.0                 !
 ! D4    D(11,1,2,4)           118.7571         -DE/DX =    0.0                 !
 ! D5    D(11,1,2,9)             0.1653         -DE/DX =    0.0                 !
 ! D6    D(11,1,2,10)         -122.651          -DE/DX =    0.0                 !
 ! D7    D(12,1,2,4)          -118.7571         -DE/DX =    0.0                 !
 ! D8    D(12,1,2,9)           122.651          -DE/DX =    0.0                 !
 ! D9    D(12,1,2,10)           -0.1653         -DE/DX =    0.0                 !
 ! D10   D(2,1,3,4)              0.0            -DE/DX =    0.0                 !
 ! D11   D(2,1,3,5)           -109.6601         -DE/DX =    0.0                 !
 ! D12   D(2,1,3,6)            109.6601         -DE/DX =    0.0                 !
 ! D13   D(11,1,3,4)          -102.9513         -DE/DX =    0.0                 !
 ! D14   D(11,1,3,5)           147.3887         -DE/DX =    0.0                 !
 ! D15   D(11,1,3,6)             6.7088         -DE/DX =    0.0                 !
 ! D16   D(12,1,3,4)           102.9513         -DE/DX =    0.0                 !
 ! D17   D(12,1,3,5)            -6.7088         -DE/DX =    0.0                 !
 ! D18   D(12,1,3,6)          -147.3887         -DE/DX =    0.0                 !
 ! D19   D(1,2,4,3)              0.0            -DE/DX =    0.0                 !
 ! D20   D(1,2,4,7)            102.9203         -DE/DX =    0.0                 !
 ! D21   D(1,2,4,8)           -102.9203         -DE/DX =    0.0                 !
 ! D22   D(9,2,4,3)            109.6583         -DE/DX =    0.0                 !
 ! D23   D(9,2,4,7)           -147.4214         -DE/DX =    0.0                 !
 ! D24   D(9,2,4,8)              6.738          -DE/DX =    0.0                 !
 ! D25   D(10,2,4,3)          -109.6583         -DE/DX =    0.0                 !
 ! D26   D(10,2,4,7)            -6.738          -DE/DX =    0.0                 !
 ! D27   D(10,2,4,8)           147.4214         -DE/DX =    0.0                 !
 ! D28   D(1,3,4,2)              0.0            -DE/DX =    0.0                 !
 ! D29   D(1,3,4,7)           -118.6966         -DE/DX =    0.0                 !
 ! D30   D(1,3,4,8)            118.6966         -DE/DX =    0.0                 !
 ! D31   D(5,3,4,2)            118.5816         -DE/DX =    0.0                 !
 ! D32   D(5,3,4,7)             -0.115          -DE/DX =    0.0                 !
 ! D33   D(5,3,4,8)           -122.7217         -DE/DX =    0.0                 !
 ! D34   D(6,3,4,2)           -118.5816         -DE/DX =    0.0                 !
 ! D35   D(6,3,4,7)            122.7217         -DE/DX =    0.0                 !
 ! D36   D(6,3,4,8)              0.115          -DE/DX =    0.0                 !
 --------------------------------------------------------------------------------
 Lowest energy point so far.  Saving SCF results.
 GradGradGradGradGradGradGradGradGradGradGradGradGradGradGradGradGradGrad

 Summary of Optimized Potential Surface Scan
                           1         2
     Eigenvalues --  -164.06827-164.06566
           R1           2.10295   2.10295
           R2           1.49743   1.48161
           R3           1.19576   1.19702
           R4           1.19576   1.19702
           R5           1.50218   1.48183
           R6           1.00844   1.00785
           R7           1.00844   1.00785
           R8           2.00295   2.10295
           R9           1.00929   1.00783
           R10          1.00929   1.00783
           R11          1.19934   1.19695
           R12          1.19934   1.19695
           A1          91.75512  95.20306
           A2         100.67225  99.01396
           A3         100.67225  99.01396
           A4         117.18514 117.32195
           A5         117.18514 117.32195
           A6         120.20675 119.95763
           A7          84.42782  84.79777
           A8         111.81762 109.72459
           A9         111.81762 109.72459
           A10        117.58733 118.63534
           A11        117.58733 118.63534
           A12        110.83005 111.48826
           A13         88.19794  84.80292
           A14        117.25988 118.62401
           A15        117.25988 118.62401
           A16        110.68060 109.72464
           A17        110.68060 109.72464
           A18        110.52925 111.50457
           A19         95.61912  95.19624
           A20        116.51714 117.26730
           A21        116.51714 117.26730
           A22        101.23360  99.00033
           A23        101.23360  99.00033
           A24        119.10732 120.07997
           D1           0.00000   0.00000
           D2        -117.52544-118.59185
           D3         117.52544 118.59185
           D4         118.09285 118.75710
           D5           0.56740   0.16525
           D6        -124.38171-122.65105
           D7        -118.09285-118.75710
           D8         124.38171 122.65105
           D9          -0.56740  -0.16525
           D10          0.00000   0.00000
           D11       -112.41215-109.66006
           D12        112.41215 109.66006
           D13       -102.94549-102.95127
           D14        144.64236 147.38868
           D15          9.46666   6.70879
           D16        102.94549 102.95127
           D17         -9.46666  -6.70879
           D18       -144.64236-147.38868
           D19          0.00000   0.00000
           D20        105.53667 102.92032
           D21       -105.53667-102.92032
           D22        111.73679 109.65830
           D23       -142.72654-147.42138
           D24          6.20012   6.73798
           D25       -111.73679-109.65830
           D26         -6.20012  -6.73798
           D27        142.72654 147.42138
           D28          0.00000   0.00000
           D29       -118.48479-118.69663
           D30        118.48479 118.69663
           D31        118.55091 118.58163
           D32          0.06611  -0.11500
           D33       -122.96430-122.72174
           D34       -118.55091-118.58163
           D35        122.96430 122.72174
           D36         -0.06611   0.11500
 Largest change from initial coordinates is atom   12       0.093 Angstoms.
 Leave Link  103 at Thu Mar  9 15:09:05 2017, MaxMem=  1127874560 cpu:         0.1
 (Enter /share/apps/g09RelE.01/g09/l202.exe)
                          Input orientation:                          
 ---------------------------------------------------------------------
 Center     Atomic      Atomic             Coordinates (Angstroms)
 Number     Number       Type             X           Y           Z
 ---------------------------------------------------------------------
      1          5           0       -0.042571   -1.227489    0.000000
      2          7           0        1.273345    0.412865    0.000000
      3          7           0       -1.277580   -0.408999    0.000000
      4          5           0        0.038165    1.231494    0.000000
      5          1           0       -1.844454   -0.390373    0.833087
      6          1           0       -1.844454   -0.390373   -0.833087
      7          1           0       -0.287508    1.732734    1.037004
      8          1           0       -0.287508    1.732734   -1.037004
      9          1           0        1.840341    0.394085   -0.833019
     10          1           0        1.840341    0.394085    0.833019
     11          1           0        0.283730   -1.729685   -1.036428
     12          1           0        0.283730   -1.729685    1.036428
 ---------------------------------------------------------------------
                    Distance matrix (angstroms):
                    1          2          3          4          5
     1  B    0.000000
     2  N    2.102950   0.000000
     3  N    1.481612   2.680052   0.000000
     4  B    2.460308   1.481831   2.102951   0.000000
     5  H    2.154433   3.325642   1.007833   2.620829   0.000000
     6  H    2.154433   3.325642   1.007833   2.620829   1.666174
     7  H    3.146156   2.292094   2.577333   1.196947   2.640691
     8  H    3.146156   2.292094   2.577333   1.196947   3.229382
     9  H    2.620837   1.007848   3.325703   2.154765   4.119345
    10  H    2.620837   1.007848   3.325703   2.154765   3.767372
    11  H    1.197020   2.577604   2.292615   3.146914   3.133371
    12  H    1.197020   2.577604   2.292615   3.146914   2.522751
                    6          7          8          9         10
     6  H    0.000000
     7  H    3.229382   0.000000
     8  H    2.640691   2.074008   0.000000
     9  H    3.767372   3.133163   2.522168   0.000000
    10  H    4.119345   2.522168   3.133163   1.666038   0.000000
    11  H    2.522751   4.076001   3.509225   2.640987   3.229284
    12  H    3.133371   3.509225   4.076001   3.229284   2.640987
                   11         12
    11  H    0.000000
    12  H    2.072856   0.000000
 Stoichiometry    B2H8N2
 Framework group  CS[SG(B2N2),X(H8)]
 Deg. of freedom    17
 Full point group                 CS      NOp   2
 RotChk:  IX=3 Diff= 1.47D-16
 Largest Abelian subgroup         CS      NOp   2
 Largest concise Abelian subgroup CS      NOp   2
                         Standard orientation:                         
 ---------------------------------------------------------------------
 Center     Atomic      Atomic             Coordinates (Angstroms)
 Number     Number       Type             X           Y           Z
 ---------------------------------------------------------------------
      1          5           0        0.000000   -1.230049    0.000000
      2          7           0        1.261244    0.452705    0.000000
      3          7           0       -1.261265   -0.452628    0.000000
      4          5           0       -0.000197    1.230259    0.000000
      5          1           0       -1.828445   -0.452659    0.833087
      6          1           0       -1.828445   -0.452659   -0.833087
      7          1           0       -0.342182    1.720515    1.037004
      8          1           0       -0.342182    1.720515   -1.037004
      9          1           0        1.828551    0.452587   -0.833019
     10          1           0        1.828551    0.452587    0.833019
     11          1           0        0.342645   -1.721239   -1.036428
     12          1           0        0.342645   -1.721239    1.036428
 ---------------------------------------------------------------------
 Rotational constants (GHZ):     11.2258054      6.3516417      4.5808085
 Leave Link  202 at Thu Mar  9 15:09:06 2017, MaxMem=  1127874560 cpu:         0.1
 (Enter /share/apps/g09RelE.01/g09/l601.exe)
 Copying SCF densities to generalized density rwf, IOpCl= 0 IROHF=0.

 **********************************************************************

            Population analysis using the SCF density.

 **********************************************************************

 Orbital symmetries:
       Occupied  (A') (A') (A') (A') (A') (A') (A') (A") (A') (A")
                 (A') (A') (A') (A") (A") (A')
       Virtual   (A') (A') (A') (A") (A') (A") (A') (A') (A") (A')
                 (A") (A') (A") (A') (A') (A") (A') (A') (A') (A")
                 (A") (A') (A') (A') (A") (A') (A') (A") (A") (A')
                 (A') (A") (A') (A') (A') (A") (A") (A') (A') (A')
                 (A") (A") (A') (A') (A") (A") (A') (A') (A') (A")
                 (A') (A") (A") (A") (A') (A') (A') (A") (A") (A')
                 (A') (A') (A") (A") (A") (A') (A') (A') (A") (A')
                 (A') (A') (A') (A') (A") (A') (A") (A") (A") (A')
                 (A') (A") (A') (A") (A') (A') (A') (A") (A') (A')
                 (A") (A') (A") (A") (A') (A') (A') (A') (A") (A")
                 (A') (A') (A') (A')
 The electronic state is 1-A'.
 Alpha  occ. eigenvalues --  -14.42383 -14.42381  -6.84704  -6.84699  -0.97602
 Alpha  occ. eigenvalues --   -0.95239  -0.62646  -0.60039  -0.59475  -0.58151
 Alpha  occ. eigenvalues --   -0.47412  -0.47398  -0.43209  -0.40063  -0.39383
 Alpha  occ. eigenvalues --   -0.32724
 Alpha virt. eigenvalues --    0.08767   0.10914   0.14779   0.15177   0.18139
 Alpha virt. eigenvalues --    0.19274   0.20594   0.20836   0.23716   0.24736
 Alpha virt. eigenvalues --    0.26527   0.27189   0.33464   0.35166   0.39228
 Alpha virt. eigenvalues --    0.42455   0.45358   0.47427   0.48797   0.52258
 Alpha virt. eigenvalues --    0.52613   0.53992   0.55108   0.58573   0.62734
 Alpha virt. eigenvalues --    0.63045   0.65012   0.69342   0.77244   0.77294
 Alpha virt. eigenvalues --    0.78257   0.79734   0.81688   0.91268   0.91460
 Alpha virt. eigenvalues --    1.05150   1.05988   1.09360   1.11143   1.16972
 Alpha virt. eigenvalues --    1.19732   1.26577   1.26814   1.29875   1.32990
 Alpha virt. eigenvalues --    1.36868   1.38326   1.44422   1.63907   1.64349
 Alpha virt. eigenvalues --    1.70777   1.71340   1.72248   1.76547   1.77062
 Alpha virt. eigenvalues --    1.81362   1.85079   1.85191   1.88083   1.95016
 Alpha virt. eigenvalues --    1.97451   2.00779   2.02131   2.03216   2.08547
 Alpha virt. eigenvalues --    2.10444   2.14427   2.19659   2.20918   2.21176
 Alpha virt. eigenvalues --    2.29088   2.38433   2.51223   2.51404   2.54577
 Alpha virt. eigenvalues --    2.56050   2.56745   2.64472   2.64550   2.69865
 Alpha virt. eigenvalues --    2.73151   2.77972   2.78493   2.78507   2.82683
 Alpha virt. eigenvalues --    2.89996   2.92899   2.97061   3.01025   3.05264
 Alpha virt. eigenvalues --    3.05751   3.17437   3.23911   3.32452   4.00767
 Alpha virt. eigenvalues --    4.08980   4.63425   4.73218   4.85415   4.85492
 Alpha virt. eigenvalues --   14.68421  14.80204  35.70288  35.74623
          Condensed to atoms (all electrons):
               1          2          3          4          5          6
     1  B    3.589201   0.126230   0.360473  -0.027811  -0.031939  -0.031939
     2  N    0.126230   6.431298  -0.061657   0.360385   0.002559   0.002559
     3  N    0.360473  -0.061657   6.431119   0.126175   0.372069   0.372069
     4  B   -0.027811   0.360385   0.126175   3.589048  -0.005023  -0.005023
     5  H   -0.031939   0.002559   0.372069  -0.005023   0.463612  -0.031666
     6  H   -0.031939   0.002559   0.372069  -0.005023  -0.031666   0.463612
     7  H   -0.001101  -0.022334  -0.018463   0.433011  -0.002347   0.001559
     8  H   -0.001101  -0.022334  -0.018463   0.433011   0.001559  -0.002347
     9  H   -0.005030   0.372067   0.002557  -0.031919  -0.000208  -0.000037
    10  H   -0.005030   0.372067   0.002557  -0.031919  -0.000037  -0.000208
    11  H    0.433007  -0.018448  -0.022295  -0.001109   0.005374  -0.010141
    12  H    0.433007  -0.018448  -0.022295  -0.001109  -0.010141   0.005374
               7          8          9         10         11         12
     1  B   -0.001101  -0.001101  -0.005030  -0.005030   0.433007   0.433007
     2  N   -0.022334  -0.022334   0.372067   0.372067  -0.018448  -0.018448
     3  N   -0.018463  -0.018463   0.002557   0.002557  -0.022295  -0.022295
     4  B    0.433011   0.433011  -0.031919  -0.031919  -0.001109  -0.001109
     5  H   -0.002347   0.001559  -0.000208  -0.000037   0.005374  -0.010141
     6  H    0.001559  -0.002347  -0.000037  -0.000208  -0.010141   0.005374
     7  H    0.689423  -0.020163   0.005373  -0.010133  -0.000750   0.001210
     8  H   -0.020163   0.689423  -0.010133   0.005373   0.001210  -0.000750
     9  H    0.005373  -0.010133   0.463639  -0.031677  -0.002346   0.001559
    10  H   -0.010133   0.005373  -0.031677   0.463639   0.001559  -0.002346
    11  H   -0.000750   0.001210  -0.002346   0.001559   0.689539  -0.020281
    12  H    0.001210  -0.000750   0.001559  -0.002346  -0.020281   0.689539
 Mulliken charges:
               1
     1  B    0.162031
     2  N   -0.523943
     3  N   -0.523848
     4  B    0.162283
     5  H    0.236188
     6  H    0.236188
     7  H   -0.055286
     8  H   -0.055286
     9  H    0.236156
    10  H    0.236156
    11  H   -0.055319
    12  H   -0.055319
 Sum of Mulliken charges =  -0.00000
 Mulliken charges with hydrogens summed into heavy atoms:
               1
     1  B    0.051394
     2  N   -0.051632
     3  N   -0.051473
     4  B    0.051710
 Electronic spatial extent (au):  <R**2>=            323.8586
 Charge=              0.0000 electrons
 Dipole moment (field-independent basis, Debye):
    X=             -0.0008    Y=              0.0014    Z=              0.0000  Tot=              0.0016
 Quadrupole moment (field-independent basis, Debye-Ang):
   XX=            -20.4018   YY=            -33.6588   ZZ=            -26.7998
   XY=              3.0694   XZ=              0.0000   YZ=             -0.0000
 Traceless Quadrupole moment (field-independent basis, Debye-Ang):
   XX=              6.5516   YY=             -6.7053   ZZ=              0.1537
   XY=              3.0694   XZ=              0.0000   YZ=             -0.0000
 Octapole moment (field-independent basis, Debye-Ang**2):
  XXX=              0.0005  YYY=              0.0066  ZZZ=              0.0000  XYY=             -0.0007
  XXY=             -0.0017  XXZ=              0.0000  XZZ=             -0.0018  YZZ=              0.0034
  YYZ=              0.0000  XYZ=             -0.0000
 Hexadecapole moment (field-independent basis, Debye-Ang**3):
 XXXX=           -144.8172 YYYY=           -241.3185 ZZZZ=            -66.4452 XXXY=             -8.1852
 XXXZ=              0.0000 YYYX=            -11.8436 YYYZ=             -0.0000 ZZZX=              0.0000
 ZZZY=             -0.0000 XXYY=            -69.9342 XXZZ=            -28.1345 YYZZ=            -54.0375
 XXYZ=              0.0000 YYXZ=              0.0000 ZZXY=             -1.3327
 N-N= 1.154022220034D+02 E-N=-6.119606688149D+02  KE= 1.632227928077D+02
 Symmetry A'   KE= 1.548386163523D+02
 Symmetry A"   KE= 8.384176455397D+00
 No NMR shielding tensors so no spin-rotation constants.
 Leave Link  601 at Thu Mar  9 15:09:06 2017, MaxMem=  1127874560 cpu:         0.8
 (Enter /share/apps/g09RelE.01/g09/l9999.exe)
 1\1\GINC-COMPUTE-0-9\Scan\RwB97XD\6-311G(d,p)\B2H8N2\BERTA\09-Mar-2017
 \0\\#P RwB97XD/6-311G(d,p)int(grid=ultrafine) opt(modred,loose)\\AB2-m
 ult-scan5_2.gjf\\0,1\B,-0.0425710229,-1.2274894583,0.\N,1.2733449494,0
 .4128648032,0.\N,-1.277580284,-0.4089994572,0.\B,0.03816535,1.23149362
 59,0.\H,-1.8444543386,-0.3903730353,0.8330868668\H,-1.8444543386,-0.39
 03730353,-0.8330868668\H,-0.2875077721,1.7327342716,1.0370042249\H,-0.
 2875077721,1.7327342716,-1.0370042249\H,1.8403414288,0.3940851796,-0.8
 330190263\H,1.8403414288,0.3940851796,0.8330190263\H,0.2837301856,-1.7
 296851725,-1.0364281847\H,0.2837301856,-1.7296851725,1.0364281847\\Ver
 sion=ES64L-G09RevE.01\State=1-A'\HF=-164.0682661,-164.065658\RMSD=4.19
 0e-09,3.097e-09\PG=CS [SG(B2N2),X(H8)]\\@


 THE MOLECULE ALSO HAS A BODY.  WHEN THIS BODY IS HIT, THE MOLECULE
 FEELS HURT ALL OVER -- A. KITAIGORODSKI
 Job cpu time:       0 days  0 hours  8 minutes 55.0 seconds.
 File lengths (MBytes):  RWF=      9 Int=      0 D2E=      0 Chk=      3 Scr=      1
 Normal termination of Gaussian 09 at Thu Mar  9 15:09:06 2017.
