compute-0-5.local
 Entering Gaussian System, Link 0=g09
 Initial command:
 /share/apps/g09RelD.01/g09/l1.exe "/state/partition1/berta/Gau-4960.inp" -scrdir="/state/partition1/berta/"
 Entering Link 1 = /share/apps/g09RelD.01/g09/l1.exe PID=      4961.
  
 Copyright (c) 1988,1990,1992,1993,1995,1998,2003,2009,2013,
            Gaussian, Inc.  All Rights Reserved.
  
 This is part of the Gaussian(R) 09 program.  It is based on
 the Gaussian(R) 03 system (copyright 2003, Gaussian, Inc.),
 the Gaussian(R) 98 system (copyright 1998, Gaussian, Inc.),
 the Gaussian(R) 94 system (copyright 1995, Gaussian, Inc.),
 the Gaussian 92(TM) system (copyright 1992, Gaussian, Inc.),
 the Gaussian 90(TM) system (copyright 1990, Gaussian, Inc.),
 the Gaussian 88(TM) system (copyright 1988, Gaussian, Inc.),
 the Gaussian 86(TM) system (copyright 1986, Carnegie Mellon
 University), and the Gaussian 82(TM) system (copyright 1983,
 Carnegie Mellon University). Gaussian is a federally registered
 trademark of Gaussian, Inc.
  
 This software contains proprietary and confidential information,
 including trade secrets, belonging to Gaussian, Inc.
  
 This software is provided under written license and may be
 used, copied, transmitted, or stored only in accord with that
 written license.
  
 The following legend is applicable only to US Government
 contracts under FAR:
  
                    RESTRICTED RIGHTS LEGEND
  
 Use, reproduction and disclosure by the US Government is
 subject to restrictions as set forth in subparagraphs (a)
 and (c) of the Commercial Computer Software - Restricted
 Rights clause in FAR 52.227-19.
  
 Gaussian, Inc.
 340 Quinnipiac St., Bldg. 40, Wallingford CT 06492
  
  
 ---------------------------------------------------------------
 Warning -- This program may not be used in any manner that
 competes with the business of Gaussian, Inc. or will provide
 assistance to any competitor of Gaussian, Inc.  The licensee
 of this program is prohibited from giving any competitor of
 Gaussian, Inc. access to this program.  By using this program,
 the user acknowledges that Gaussian, Inc. is engaged in the
 business of creating and licensing software in the field of
 computational chemistry and represents and warrants to the
 licensee that it is not a competitor of Gaussian, Inc. and that
 it will not use this program in any manner prohibited above.
 ---------------------------------------------------------------
  

 Cite this work as:
 Gaussian 09, Revision D.01,
 M. J. Frisch, G. W. Trucks, H. B. Schlegel, G. E. Scuseria, 
 M. A. Robb, J. R. Cheeseman, G. Scalmani, V. Barone, B. Mennucci, 
 G. A. Petersson, H. Nakatsuji, M. Caricato, X. Li, H. P. Hratchian, 
 A. F. Izmaylov, J. Bloino, G. Zheng, J. L. Sonnenberg, M. Hada, 
 M. Ehara, K. Toyota, R. Fukuda, J. Hasegawa, M. Ishida, T. Nakajima, 
 Y. Honda, O. Kitao, H. Nakai, T. Vreven, J. A. Montgomery, Jr., 
 J. E. Peralta, F. Ogliaro, M. Bearpark, J. J. Heyd, E. Brothers, 
 K. N. Kudin, V. N. Staroverov, T. Keith, R. Kobayashi, J. Normand, 
 K. Raghavachari, A. Rendell, J. C. Burant, S. S. Iyengar, J. Tomasi, 
 M. Cossi, N. Rega, J. M. Millam, M. Klene, J. E. Knox, J. B. Cross, 
 V. Bakken, C. Adamo, J. Jaramillo, R. Gomperts, R. E. Stratmann, 
 O. Yazyev, A. J. Austin, R. Cammi, C. Pomelli, J. W. Ochterski, 
 R. L. Martin, K. Morokuma, V. G. Zakrzewski, G. A. Voth, 
 P. Salvador, J. J. Dannenberg, S. Dapprich, A. D. Daniels, 
 O. Farkas, J. B. Foresman, J. V. Ortiz, J. Cioslowski, 
 and D. J. Fox, Gaussian, Inc., Wallingford CT, 2013.
 
 ******************************************
 Gaussian 09:  AS64L-G09RevD.01 24-Apr-2013
                 9-Mar-2017 
 ******************************************
 %chk=AB-AB-NHscan.chk
 %nproc=4
 Will use up to    4 processors via shared memory.
 %mem=4298MB
 -----------------------------------------------------------
 #P RwB97XD/6-311G(d,p)int(grid=ultrafine) opt(modred,loose)
 -----------------------------------------------------------
 1/7=-1,14=-1,18=120,19=15,26=4,38=1/1,3;
 2/9=110,12=2,17=6,18=5,40=1/2;
 3/5=4,6=6,7=101,11=2,16=1,25=1,30=1,71=1,74=-58,75=-5,116=1/1,2,3;
 4//1;
 5/5=2,38=5/2;
 6/7=2,8=2,9=2,10=2,28=1/1;
 7//1,2,3,16;
 1/7=-1,14=-1,18=20,19=15,26=4/3(2);
 2/9=110/2;
 99//99;
 2/9=110/2;
 3/5=4,6=6,7=101,11=2,16=1,25=1,30=1,71=1,74=-58,75=-5,116=1/1,2,3;
 4/5=5,16=3,69=1/1;
 5/5=2,38=5/2;
 7//1,2,3,16;
 1/7=-1,14=-1,18=20,19=15,26=4/3(-5);
 2/9=110/2;
 6/7=2,8=2,9=2,10=2,19=2,28=1/1;
 99/9=1/99;
 Leave Link    1 at Thu Mar  9 15:09:33 2017, MaxMem=   563347456 cpu:         0.4
 (Enter /share/apps/g09RelD.01/g09/l101.exe)
 --------------------
 AB2-mult-scan6_1.gjf
 --------------------
 Symbolic Z-matrix:
 Charge =  0 Multiplicity = 1
 B                     0.       -1.23005   0. 
 N                     1.26124   0.45271   0. 
 N                    -1.26127  -0.45263   0. 
 B                    -0.0002    1.23026   0. 
 H                    -1.82845  -0.45266   0.83309 
 H                    -1.82845  -0.45266  -0.83309 
 H                    -0.34218   1.72052   1.037 
 H                    -0.34218   1.72052  -1.037 
 H                     1.82855   0.45259  -0.83302 
 H                     1.82855   0.45259   0.83302 
 H                     0.34265  -1.72124  -1.03643 
 H                     0.34265  -1.72124   1.03643 
 
 Add virtual bond connecting atoms N2         and B1         Dist= 3.97D+00.
 Add virtual bond connecting atoms B4         and N3         Dist= 3.97D+00.
 The following ModRedundant input section has been read:
 B       1       2 S   1 0.1000                                                
 B       3       4 F                                                           
 
 NAtoms=     12 NQM=       12 NQMF=       0 NMMI=      0 NMMIF=      0
                NMic=       0 NMicF=      0.
                    Isotopes and Nuclear Properties:
 (Nuclear quadrupole moments (NQMom) in fm**2, nuclear magnetic moments (NMagM)
  in nuclear magnetons)

  Atom         1           2           3           4           5           6           7           8           9          10
 IAtWgt=          11          14          14          11           1           1           1           1           1           1
 AtmWgt=  11.0093053  14.0030740  14.0030740  11.0093053   1.0078250   1.0078250   1.0078250   1.0078250   1.0078250   1.0078250
 NucSpn=           3           2           2           3           1           1           1           1           1           1
 AtZEff=   0.0000000   0.0000000   0.0000000   0.0000000   0.0000000   0.0000000   0.0000000   0.0000000   0.0000000   0.0000000
 NQMom=    4.0590000   2.0440000   2.0440000   4.0590000   0.0000000   0.0000000   0.0000000   0.0000000   0.0000000   0.0000000
 NMagM=    2.6886370   0.4037610   0.4037610   2.6886370   2.7928460   2.7928460   2.7928460   2.7928460   2.7928460   2.7928460
 AtZNuc=   5.0000000   7.0000000   7.0000000   5.0000000   1.0000000   1.0000000   1.0000000   1.0000000   1.0000000   1.0000000

  Atom        11          12
 IAtWgt=           1           1
 AtmWgt=   1.0078250   1.0078250
 NucSpn=           1           1
 AtZEff=   0.0000000   0.0000000
 NQMom=    0.0000000   0.0000000
 NMagM=    2.7928460   2.7928460
 AtZNuc=   1.0000000   1.0000000
 Leave Link  101 at Thu Mar  9 15:09:33 2017, MaxMem=   563347456 cpu:         1.0
 (Enter /share/apps/g09RelD.01/g09/l103.exe)

 GradGradGradGradGradGradGradGradGradGradGradGradGradGradGradGradGradGrad
 Berny optimization.
 Initialization pass.
                           ----------------------------
                           !    Initial Parameters    !
                           ! (Angstroms and Degrees)  !
 --------------------------                            --------------------------
 ! Name  Definition              Value          Derivative Info.                !
 --------------------------------------------------------------------------------
 ! R1    R(1,2)                  2.1029         Scan                            !
 ! R2    R(1,3)                  1.4816         estimate D2E/DX2                !
 ! R3    R(1,11)                 1.197          estimate D2E/DX2                !
 ! R4    R(1,12)                 1.197          estimate D2E/DX2                !
 ! R5    R(2,4)                  1.4818         estimate D2E/DX2                !
 ! R6    R(2,9)                  1.0078         estimate D2E/DX2                !
 ! R7    R(2,10)                 1.0078         estimate D2E/DX2                !
 ! R8    R(3,4)                  2.103          Frozen                          !
 ! R9    R(3,5)                  1.0078         estimate D2E/DX2                !
 ! R10   R(3,6)                  1.0078         estimate D2E/DX2                !
 ! R11   R(4,7)                  1.1969         estimate D2E/DX2                !
 ! R12   R(4,8)                  1.1969         estimate D2E/DX2                !
 ! A1    A(2,1,3)               95.2031         estimate D2E/DX2                !
 ! A2    A(2,1,11)              99.0139         estimate D2E/DX2                !
 ! A3    A(2,1,12)              99.0139         estimate D2E/DX2                !
 ! A4    A(3,1,11)             117.322          estimate D2E/DX2                !
 ! A5    A(3,1,12)             117.322          estimate D2E/DX2                !
 ! A6    A(11,1,12)            119.9576         estimate D2E/DX2                !
 ! A7    A(1,2,4)               84.7977         estimate D2E/DX2                !
 ! A8    A(1,2,9)              109.7246         estimate D2E/DX2                !
 ! A9    A(1,2,10)             109.7246         estimate D2E/DX2                !
 ! A10   A(4,2,9)              118.6353         estimate D2E/DX2                !
 ! A11   A(4,2,10)             118.6353         estimate D2E/DX2                !
 ! A12   A(9,2,10)             111.4883         estimate D2E/DX2                !
 ! A13   A(1,3,4)               84.8029         estimate D2E/DX2                !
 ! A14   A(1,3,5)              118.624          estimate D2E/DX2                !
 ! A15   A(1,3,6)              118.624          estimate D2E/DX2                !
 ! A16   A(4,3,5)              109.7246         estimate D2E/DX2                !
 ! A17   A(4,3,6)              109.7246         estimate D2E/DX2                !
 ! A18   A(5,3,6)              111.5046         estimate D2E/DX2                !
 ! A19   A(2,4,3)               95.1962         estimate D2E/DX2                !
 ! A20   A(2,4,7)              117.2673         estimate D2E/DX2                !
 ! A21   A(2,4,8)              117.2673         estimate D2E/DX2                !
 ! A22   A(3,4,7)               99.0003         estimate D2E/DX2                !
 ! A23   A(3,4,8)               99.0003         estimate D2E/DX2                !
 ! A24   A(7,4,8)              120.08           estimate D2E/DX2                !
 ! D1    D(3,1,2,4)              0.0            estimate D2E/DX2                !
 ! D2    D(3,1,2,9)           -118.5918         estimate D2E/DX2                !
 ! D3    D(3,1,2,10)           118.5918         estimate D2E/DX2                !
 ! D4    D(11,1,2,4)           118.7571         estimate D2E/DX2                !
 ! D5    D(11,1,2,9)             0.1653         estimate D2E/DX2                !
 ! D6    D(11,1,2,10)         -122.651          estimate D2E/DX2                !
 ! D7    D(12,1,2,4)          -118.7571         estimate D2E/DX2                !
 ! D8    D(12,1,2,9)           122.651          estimate D2E/DX2                !
 ! D9    D(12,1,2,10)           -0.1653         estimate D2E/DX2                !
 ! D10   D(2,1,3,4)              0.0            estimate D2E/DX2                !
 ! D11   D(2,1,3,5)           -109.6601         estimate D2E/DX2                !
 ! D12   D(2,1,3,6)            109.6601         estimate D2E/DX2                !
 ! D13   D(11,1,3,4)          -102.9512         estimate D2E/DX2                !
 ! D14   D(11,1,3,5)           147.3887         estimate D2E/DX2                !
 ! D15   D(11,1,3,6)             6.7088         estimate D2E/DX2                !
 ! D16   D(12,1,3,4)           102.9512         estimate D2E/DX2                !
 ! D17   D(12,1,3,5)            -6.7088         estimate D2E/DX2                !
 ! D18   D(12,1,3,6)          -147.3887         estimate D2E/DX2                !
 ! D19   D(1,2,4,3)              0.0            estimate D2E/DX2                !
 ! D20   D(1,2,4,7)            102.9203         estimate D2E/DX2                !
 ! D21   D(1,2,4,8)           -102.9203         estimate D2E/DX2                !
 ! D22   D(9,2,4,3)            109.6583         estimate D2E/DX2                !
 ! D23   D(9,2,4,7)           -147.4214         estimate D2E/DX2                !
 ! D24   D(9,2,4,8)              6.7379         estimate D2E/DX2                !
 ! D25   D(10,2,4,3)          -109.6583         estimate D2E/DX2                !
 ! D26   D(10,2,4,7)            -6.7379         estimate D2E/DX2                !
 ! D27   D(10,2,4,8)           147.4214         estimate D2E/DX2                !
 ! D28   D(1,3,4,2)              0.0            estimate D2E/DX2                !
 ! D29   D(1,3,4,7)           -118.6966         estimate D2E/DX2                !
 ! D30   D(1,3,4,8)            118.6966         estimate D2E/DX2                !
 ! D31   D(5,3,4,2)            118.5816         estimate D2E/DX2                !
 ! D32   D(5,3,4,7)             -0.115          estimate D2E/DX2                !
 ! D33   D(5,3,4,8)           -122.7218         estimate D2E/DX2                !
 ! D34   D(6,3,4,2)           -118.5816         estimate D2E/DX2                !
 ! D35   D(6,3,4,7)            122.7218         estimate D2E/DX2                !
 ! D36   D(6,3,4,8)              0.115          estimate D2E/DX2                !
 --------------------------------------------------------------------------------
 Trust Radius=3.00D-01 FncErr=1.00D-07 GrdErr=1.00D-06
 Number of optimizations in scan=   2
 Number of steps in this run=     82 maximum allowed number of steps=    100.
 GradGradGradGradGradGradGradGradGradGradGradGradGradGradGradGradGradGrad

 Leave Link  103 at Thu Mar  9 15:09:33 2017, MaxMem=   563347456 cpu:         0.1
 (Enter /share/apps/g09RelD.01/g09/l202.exe)
                          Input orientation:                          
 ---------------------------------------------------------------------
 Center     Atomic      Atomic             Coordinates (Angstroms)
 Number     Number       Type             X           Y           Z
 ---------------------------------------------------------------------
      1          5           0        0.000000   -1.230049    0.000000
      2          7           0        1.261244    0.452705    0.000000
      3          7           0       -1.261265   -0.452628    0.000000
      4          5           0       -0.000197    1.230259    0.000000
      5          1           0       -1.828445   -0.452659    0.833087
      6          1           0       -1.828445   -0.452659   -0.833087
      7          1           0       -0.342182    1.720515    1.037004
      8          1           0       -0.342182    1.720515   -1.037004
      9          1           0        1.828551    0.452587   -0.833019
     10          1           0        1.828551    0.452587    0.833019
     11          1           0        0.342645   -1.721239   -1.036428
     12          1           0        0.342645   -1.721239    1.036428
 ---------------------------------------------------------------------
                    Distance matrix (angstroms):
                    1          2          3          4          5
     1  B    0.000000
     2  N    2.102950   0.000000
     3  N    1.481612   2.680052   0.000000
     4  B    2.460308   1.481831   2.102951   0.000000
     5  H    2.154433   3.325642   1.007833   2.620828   0.000000
     6  H    2.154433   3.325642   1.007833   2.620828   1.666174
     7  H    3.146155   2.292094   2.577332   1.196947   2.640690
     8  H    3.146155   2.292094   2.577332   1.196947   3.229381
     9  H    2.620836   1.007848   3.325703   2.154765   4.119345
    10  H    2.620836   1.007848   3.325703   2.154765   3.767372
    11  H    1.197020   2.577603   2.292615   3.146913   3.133371
    12  H    1.197020   2.577603   2.292615   3.146913   2.522751
                    6          7          8          9         10
     6  H    0.000000
     7  H    3.229381   0.000000
     8  H    2.640690   2.074008   0.000000
     9  H    3.767372   3.133163   2.522168   0.000000
    10  H    4.119345   2.522168   3.133163   1.666038   0.000000
    11  H    2.522751   4.076000   3.509225   2.640987   3.229283
    12  H    3.133371   3.509225   4.076000   3.229283   2.640987
                   11         12
    11  H    0.000000
    12  H    2.072856   0.000000
 Stoichiometry    B2H8N2
 Framework group  CS[SG(B2N2),X(H8)]
 Deg. of freedom    17
 Full point group                 CS      NOp   2
 Largest Abelian subgroup         CS      NOp   2
 Largest concise Abelian subgroup CS      NOp   2
                         Standard orientation:                         
 ---------------------------------------------------------------------
 Center     Atomic      Atomic             Coordinates (Angstroms)
 Number     Number       Type             X           Y           Z
 ---------------------------------------------------------------------
      1          5           0        0.000000    1.230049    0.000000
      2          7           0       -1.261244   -0.452705    0.000000
      3          7           0        1.261265    0.452628    0.000000
      4          5           0        0.000197   -1.230259    0.000000
      5          1           0        1.828445    0.452659    0.833087
      6          1           0        1.828445    0.452659   -0.833087
      7          1           0        0.342182   -1.720515    1.037004
      8          1           0        0.342182   -1.720515   -1.037004
      9          1           0       -1.828551   -0.452587   -0.833019
     10          1           0       -1.828551   -0.452587    0.833019
     11          1           0       -0.342645    1.721239   -1.036428
     12          1           0       -0.342645    1.721239    1.036428
 ---------------------------------------------------------------------
 Rotational constants (GHZ):     11.2258046      6.3516435      4.5808092
 Leave Link  202 at Thu Mar  9 15:09:33 2017, MaxMem=   563347456 cpu:         0.1
 (Enter /share/apps/g09RelD.01/g09/l301.exe)
 Standard basis: 6-311G(d,p) (5D, 7F)
 Ernie: Thresh=  0.10000D-02 Tol=  0.10000D-05 Strict=F.
 There are    80 symmetry adapted cartesian basis functions of A'  symmetry.
 There are    44 symmetry adapted cartesian basis functions of A"  symmetry.
 There are    76 symmetry adapted basis functions of A'  symmetry.
 There are    44 symmetry adapted basis functions of A"  symmetry.
   120 basis functions,   192 primitive gaussians,   124 cartesian basis functions
    16 alpha electrons       16 beta electrons
       nuclear repulsion energy       115.4077649280 Hartrees.
 IExCor= 4639 DFT=T Ex+Corr=wB97XD ExCW=0 ScaHFX=  1.000000
 ScaDFX=  1.000000  1.000000  1.000000  1.000000 ScalE2=  1.000000  1.000000
 IRadAn=      5 IRanWt=     -1 IRanGd=            0 ICorTp=0 IEmpDi=121
  HFx wShort=  0.000000 wLong=  0.200000 cFull=  0.222036 cShort=  0.000000 cLong=  0.777964
  DFx wShort=  0.000000 wLong=  0.200000 cFull=  0.000000 cShort=  0.000000 cLong=  1.000000
 NAtoms=   12 NActive=   12 NUniq=    8 SFac= 2.25D+00 NAtFMM=   60 NAOKFM=F Big=F
 Integral buffers will be    131072 words long.
 Raffenetti 2 integral format.
 Two-electron integral symmetry is turned on.
 R6Disp:  Grimme-D2 Dispersion energy=       -0.0055362707 Hartrees.
 Nuclear repulsion after empirical dispersion term =      115.4022286573 Hartrees.
 Leave Link  301 at Thu Mar  9 15:09:34 2017, MaxMem=   563347456 cpu:         0.3
 (Enter /share/apps/g09RelD.01/g09/l302.exe)
 NPDir=0 NMtPBC=     1 NCelOv=     1 NCel=       1 NClECP=     1 NCelD=      1
         NCelK=      1 NCelE2=     1 NClLst=     1 CellRange=     0.0.
 One-electron integrals computed using PRISM.
 One-electron integral symmetry used in STVInt
 NBasis=   120 RedAO= T EigKep=  5.73D-03  NBF=    76    44
 NBsUse=   120 1.00D-06 EigRej= -1.00D+00 NBFU=    76    44
 Precomputing XC quadrature grid using
 IXCGrd= 4 IRadAn=           5 IRanWt=          -1 IRanGd=           0 AccXCQ= 0.00D+00.
 Generated NRdTot=       0 NPtTot=           0 NUsed=           0 NTot=          32
 NSgBfM=   124   124   124   124   124 MxSgAt=    12 MxSgA2=    12.
 Leave Link  302 at Thu Mar  9 15:09:34 2017, MaxMem=   563347456 cpu:         1.4
 (Enter /share/apps/g09RelD.01/g09/l303.exe)
 DipDrv:  MaxL=1.
 Leave Link  303 at Thu Mar  9 15:09:34 2017, MaxMem=   563347456 cpu:         0.2
 (Enter /share/apps/g09RelD.01/g09/l401.exe)
 ExpMin= 9.89D-02 ExpMax= 6.29D+03 ExpMxC= 9.49D+02 IAcc=3 IRadAn=         5 AccDes= 0.00D+00
 Harris functional with IExCor= 4639 and IRadAn=       5 diagonalized for initial guess.
 HarFok:  IExCor= 4639 AccDes= 0.00D+00 IRadAn=         5 IDoV= 1 UseB2=F ITyADJ=14
 ICtDFT=  3500011 ScaDFX=  1.000000  1.000000  1.000000  1.000000
 FoFCou: FMM=F IPFlag=           0 FMFlag=      100000 FMFlg1=           0
         NFxFlg=           0 DoJE=T BraDBF=F KetDBF=T FulRan=T
         wScrn=  0.000000 ICntrl=     500 IOpCl=  0 I1Cent=   200000004 NGrid=           0
         NMat0=    1 NMatS0=      1 NMatT0=    0 NMatD0=    1 NMtDS0=    0 NMtDT0=    0
 Petite list used in FoFCou.
 Harris En= -156.192049833476    
 JPrj=0 DoOrth=F DoCkMO=F.
 Initial guess orbital symmetries:
       Occupied  (A') (A') (A') (A') (A') (A') (A') (A') (A") (A")
                 (A') (A') (A') (A") (A") (A')
       Virtual   (A') (A') (A") (A') (A') (A') (A") (A') (A") (A')
                 (A') (A") (A") (A') (A') (A") (A') (A') (A') (A")
                 (A") (A') (A') (A') (A") (A') (A') (A") (A") (A')
                 (A') (A") (A') (A') (A') (A") (A") (A') (A') (A')
                 (A") (A') (A") (A') (A") (A') (A") (A') (A') (A")
                 (A') (A") (A") (A') (A") (A') (A") (A') (A") (A')
                 (A') (A") (A') (A") (A") (A') (A') (A') (A') (A")
                 (A') (A') (A') (A') (A") (A") (A') (A") (A") (A')
                 (A') (A") (A") (A') (A') (A') (A') (A") (A') (A')
                 (A") (A') (A") (A") (A') (A') (A') (A') (A") (A")
                 (A') (A') (A') (A')
 The electronic state of the initial guess is 1-A'.
 Leave Link  401 at Thu Mar  9 15:09:35 2017, MaxMem=   563347456 cpu:         4.7
 (Enter /share/apps/g09RelD.01/g09/l502.exe)
 Closed shell SCF:
 Using DIIS extrapolation, IDIIS=  1040.
 Integral symmetry usage will be decided dynamically.
 Keep R1 ints in memory in symmetry-blocked form, NReq=79321962.
 IVT=       66538 IEndB=       66538 NGot=   563347456 MDV=   550002801
 LenX=   550002801 LenY=   549986984
 Requested convergence on RMS density matrix=1.00D-08 within 128 cycles.
 Requested convergence on MAX density matrix=1.00D-06.
 Requested convergence on             energy=1.00D-06.
 No special actions if energy rises.
 FoFCou: FMM=F IPFlag=           0 FMFlag=           0 FMFlg1=           0
         NFxFlg=           0 DoJE=F BraDBF=F KetDBF=F FulRan=T
         wScrn=  0.000000 ICntrl=     600 IOpCl=  0 I1Cent=           0 NGrid=           0
         NMat0=    1 NMatS0=   7260 NMatT0=    0 NMatD0=    1 NMtDS0=    0 NMtDT0=    0
 Petite list used in FoFCou.
 Integral accuracy reduced to 1.0D-05 until final iterations.

 Cycle   1  Pass 0  IDiag  1:
 E= -164.018051997247    
 DIIS: error= 9.75D-02 at cycle   1 NSaved=   1.
 NSaved= 1 IEnMin= 1 EnMin= -164.018051997247     IErMin= 1 ErrMin= 9.75D-02
 ErrMax= 9.75D-02  0.00D+00 EMaxC= 1.00D-01 BMatC= 3.46D-01 BMatP= 3.46D-01
 IDIUse=3 WtCom= 2.49D-02 WtEn= 9.75D-01
 Coeff-Com:  0.100D+01
 Coeff-En:   0.100D+01
 Coeff:      0.100D+01
 Gap=     0.440 Goal=   None    Shift=    0.000
 GapD=    0.440 DampG=2.000 DampE=0.500 DampFc=1.0000 IDamp=-1.
 RMSDP=1.71D-03 MaxDP=2.47D-02              OVMax= 7.92D-02

 Cycle   2  Pass 0  IDiag  1:
 E= -164.061700132914     Delta-E=       -0.043648135668 Rises=F Damp=F
 DIIS: error= 8.04D-03 at cycle   2 NSaved=   2.
 NSaved= 2 IEnMin= 2 EnMin= -164.061700132914     IErMin= 2 ErrMin= 8.04D-03
 ErrMax= 8.04D-03  0.00D+00 EMaxC= 1.00D-01 BMatC= 4.80D-03 BMatP= 3.46D-01
 IDIUse=3 WtCom= 9.20D-01 WtEn= 8.04D-02
 Coeff-Com:  0.608D-01 0.939D+00
 Coeff-En:   0.000D+00 0.100D+01
 Coeff:      0.559D-01 0.944D+00
 Gap=     0.411 Goal=   None    Shift=    0.000
 RMSDP=5.43D-04 MaxDP=1.70D-02 DE=-4.36D-02 OVMax= 1.97D-02

 Cycle   3  Pass 0  IDiag  1:
 E= -164.064059089209     Delta-E=       -0.002358956295 Rises=F Damp=F
 DIIS: error= 4.93D-03 at cycle   3 NSaved=   3.
 NSaved= 3 IEnMin= 3 EnMin= -164.064059089209     IErMin= 3 ErrMin= 4.93D-03
 ErrMax= 4.93D-03  0.00D+00 EMaxC= 1.00D-01 BMatC= 1.87D-03 BMatP= 4.80D-03
 IDIUse=3 WtCom= 9.51D-01 WtEn= 4.93D-02
 Coeff-Com:  0.164D-01 0.400D+00 0.584D+00
 Coeff-En:   0.000D+00 0.197D+00 0.803D+00
 Coeff:      0.156D-01 0.390D+00 0.595D+00
 Gap=     0.416 Goal=   None    Shift=    0.000
 RMSDP=2.26D-04 MaxDP=6.52D-03 DE=-2.36D-03 OVMax= 1.32D-02

 Cycle   4  Pass 0  IDiag  1:
 E= -164.065570047290     Delta-E=       -0.001510958081 Rises=F Damp=F
 DIIS: error= 8.25D-04 at cycle   4 NSaved=   4.
 NSaved= 4 IEnMin= 4 EnMin= -164.065570047290     IErMin= 4 ErrMin= 8.25D-04
 ErrMax= 8.25D-04  0.00D+00 EMaxC= 1.00D-01 BMatC= 5.84D-05 BMatP= 1.87D-03
 IDIUse=3 WtCom= 9.92D-01 WtEn= 8.25D-03
 Coeff-Com:  0.354D-02 0.837D-01 0.200D+00 0.712D+00
 Coeff-En:   0.000D+00 0.000D+00 0.000D+00 0.100D+01
 Coeff:      0.351D-02 0.830D-01 0.199D+00 0.715D+00
 Gap=     0.415 Goal=   None    Shift=    0.000
 RMSDP=4.50D-05 MaxDP=1.18D-03 DE=-1.51D-03 OVMax= 1.87D-03

 Cycle   5  Pass 0  IDiag  1:
 E= -164.065622227425     Delta-E=       -0.000052180135 Rises=F Damp=F
 DIIS: error= 2.47D-04 at cycle   5 NSaved=   5.
 NSaved= 5 IEnMin= 5 EnMin= -164.065622227425     IErMin= 5 ErrMin= 2.47D-04
 ErrMax= 2.47D-04  0.00D+00 EMaxC= 1.00D-01 BMatC= 3.80D-06 BMatP= 5.84D-05
 IDIUse=3 WtCom= 9.98D-01 WtEn= 2.47D-03
 Coeff-Com: -0.200D-02-0.423D-01-0.359D-01 0.147D+00 0.933D+00
 Coeff-En:   0.000D+00 0.000D+00 0.000D+00 0.000D+00 0.100D+01
 Coeff:     -0.200D-02-0.422D-01-0.358D-01 0.147D+00 0.933D+00
 Gap=     0.415 Goal=   None    Shift=    0.000
 RMSDP=2.61D-05 MaxDP=5.00D-04 DE=-5.22D-05 OVMax= 1.55D-03

 Cycle   6  Pass 0  IDiag  1:
 E= -164.065630091950     Delta-E=       -0.000007864525 Rises=F Damp=F
 DIIS: error= 7.00D-05 at cycle   6 NSaved=   6.
 NSaved= 6 IEnMin= 6 EnMin= -164.065630091950     IErMin= 6 ErrMin= 7.00D-05
 ErrMax= 7.00D-05  0.00D+00 EMaxC= 1.00D-01 BMatC= 1.45D-07 BMatP= 3.80D-06
 IDIUse=1 WtCom= 1.00D+00 WtEn= 0.00D+00
 Coeff-Com:  0.371D-04 0.170D-04-0.359D-02-0.594D-01-0.112D+00 0.117D+01
 Coeff:      0.371D-04 0.170D-04-0.359D-02-0.594D-01-0.112D+00 0.117D+01
 Gap=     0.415 Goal=   None    Shift=    0.000
 RMSDP=8.81D-06 MaxDP=1.15D-04 DE=-7.86D-06 OVMax= 7.24D-04

 Initial convergence to 1.0D-05 achieved.  Increase integral accuracy.
 Cycle   7  Pass 1  IDiag  1:
 E= -164.065657789880     Delta-E=       -0.000027697930 Rises=F Damp=F
 DIIS: error= 3.47D-05 at cycle   1 NSaved=   1.
 NSaved= 1 IEnMin= 1 EnMin= -164.065657789880     IErMin= 1 ErrMin= 3.47D-05
 ErrMax= 3.47D-05  0.00D+00 EMaxC= 1.00D-01 BMatC= 1.70D-07 BMatP= 1.70D-07
 IDIUse=1 WtCom= 1.00D+00 WtEn= 0.00D+00
 Coeff-Com:  0.100D+01
 Coeff:      0.100D+01
 Gap=     0.415 Goal=   None    Shift=    0.000
 RMSDP=8.81D-06 MaxDP=1.15D-04 DE=-2.77D-05 OVMax= 1.91D-04

 Cycle   8  Pass 1  IDiag  1:
 E= -164.065657997256     Delta-E=       -0.000000207376 Rises=F Damp=F
 DIIS: error= 1.30D-05 at cycle   2 NSaved=   2.
 NSaved= 2 IEnMin= 2 EnMin= -164.065657997256     IErMin= 2 ErrMin= 1.30D-05
 ErrMax= 1.30D-05  0.00D+00 EMaxC= 1.00D-01 BMatC= 9.23D-09 BMatP= 1.70D-07
 IDIUse=1 WtCom= 1.00D+00 WtEn= 0.00D+00
 Coeff-Com:  0.137D-01 0.986D+00
 Coeff:      0.137D-01 0.986D+00
 Gap=     0.415 Goal=   None    Shift=    0.000
 RMSDP=1.30D-06 MaxDP=1.93D-05 DE=-2.07D-07 OVMax= 8.92D-05

 Cycle   9  Pass 1  IDiag  1:
 E= -164.065658015354     Delta-E=       -0.000000018097 Rises=F Damp=F
 DIIS: error= 5.96D-06 at cycle   3 NSaved=   3.
 NSaved= 3 IEnMin= 3 EnMin= -164.065658015354     IErMin= 3 ErrMin= 5.96D-06
 ErrMax= 5.96D-06  0.00D+00 EMaxC= 1.00D-01 BMatC= 2.79D-09 BMatP= 9.23D-09
 IDIUse=1 WtCom= 1.00D+00 WtEn= 0.00D+00
 Coeff-Com: -0.404D-01 0.291D+00 0.750D+00
 Coeff:     -0.404D-01 0.291D+00 0.750D+00
 Gap=     0.415 Goal=   None    Shift=    0.000
 RMSDP=4.93D-07 MaxDP=9.86D-06 DE=-1.81D-08 OVMax= 4.04D-05

 Cycle  10  Pass 1  IDiag  1:
 E= -164.065658019609     Delta-E=       -0.000000004255 Rises=F Damp=F
 DIIS: error= 2.79D-06 at cycle   4 NSaved=   4.
 NSaved= 4 IEnMin= 4 EnMin= -164.065658019609     IErMin= 4 ErrMin= 2.79D-06
 ErrMax= 2.79D-06  0.00D+00 EMaxC= 1.00D-01 BMatC= 5.86D-10 BMatP= 2.79D-09
 IDIUse=1 WtCom= 1.00D+00 WtEn= 0.00D+00
 Coeff-Com: -0.150D-01-0.498D-01 0.268D+00 0.797D+00
 Coeff:     -0.150D-01-0.498D-01 0.268D+00 0.797D+00
 Gap=     0.415 Goal=   None    Shift=    0.000
 RMSDP=2.63D-07 MaxDP=3.68D-06 DE=-4.26D-09 OVMax= 2.42D-05

 Cycle  11  Pass 1  IDiag  1:
 E= -164.065658020787     Delta-E=       -0.000000001178 Rises=F Damp=F
 DIIS: error= 1.52D-06 at cycle   5 NSaved=   5.
 NSaved= 5 IEnMin= 5 EnMin= -164.065658020787     IErMin= 5 ErrMin= 1.52D-06
 ErrMax= 1.52D-06  0.00D+00 EMaxC= 1.00D-01 BMatC= 3.97D-11 BMatP= 5.86D-10
 IDIUse=1 WtCom= 1.00D+00 WtEn= 0.00D+00
 Coeff-Com:  0.415D-02-0.544D-01-0.792D-01 0.371D-01 0.109D+01
 Coeff:      0.415D-02-0.544D-01-0.792D-01 0.371D-01 0.109D+01
 Gap=     0.415 Goal=   None    Shift=    0.000
 RMSDP=1.71D-07 MaxDP=2.33D-06 DE=-1.18D-09 OVMax= 1.67D-05

 Cycle  12  Pass 1  IDiag  1:
 E= -164.065658021011     Delta-E=       -0.000000000223 Rises=F Damp=F
 DIIS: error= 3.38D-07 at cycle   6 NSaved=   6.
 NSaved= 6 IEnMin= 6 EnMin= -164.065658021011     IErMin= 6 ErrMin= 3.38D-07
 ErrMax= 3.38D-07  0.00D+00 EMaxC= 1.00D-01 BMatC= 2.96D-12 BMatP= 3.97D-11
 IDIUse=1 WtCom= 1.00D+00 WtEn= 0.00D+00
 Coeff-Com:  0.143D-02 0.957D-03-0.236D-01-0.732D-01 0.577D-01 0.104D+01
 Coeff:      0.143D-02 0.957D-03-0.236D-01-0.732D-01 0.577D-01 0.104D+01
 Gap=     0.415 Goal=   None    Shift=    0.000
 RMSDP=4.36D-08 MaxDP=5.95D-07 DE=-2.23D-10 OVMax= 4.22D-06

 Cycle  13  Pass 1  IDiag  1:
 E= -164.065658021024     Delta-E=       -0.000000000013 Rises=F Damp=F
 DIIS: error= 6.06D-08 at cycle   7 NSaved=   7.
 NSaved= 7 IEnMin= 7 EnMin= -164.065658021024     IErMin= 7 ErrMin= 6.06D-08
 ErrMax= 6.06D-08  0.00D+00 EMaxC= 1.00D-01 BMatC= 4.17D-13 BMatP= 2.96D-12
 IDIUse=1 WtCom= 1.00D+00 WtEn= 0.00D+00
 Coeff-Com:  0.771D-04 0.438D-02-0.127D-02-0.243D-01-0.629D-01 0.311D+00
 Coeff-Com:  0.773D+00
 Coeff:      0.771D-04 0.438D-02-0.127D-02-0.243D-01-0.629D-01 0.311D+00
 Coeff:      0.773D+00
 Gap=     0.415 Goal=   None    Shift=    0.000
 RMSDP=7.90D-09 MaxDP=1.04D-07 DE=-1.31D-11 OVMax= 6.99D-07

 SCF Done:  E(RwB97XD) =  -164.065658021     A.U. after   13 cycles
            NFock= 13  Conv=0.79D-08     -V/T= 2.0052
 KE= 1.632227934842D+02 PE=-6.119606850826D+02 EE= 1.692700049201D+02
 Leave Link  502 at Thu Mar  9 15:09:53 2017, MaxMem=   563347456 cpu:        67.8
 (Enter /share/apps/g09RelD.01/g09/l601.exe)
 Copying SCF densities to generalized density rwf, IOpCl= 0 IROHF=0.

 **********************************************************************

            Population analysis using the SCF density.

 **********************************************************************

 Orbital symmetries:
       Occupied  (A') (A') (A') (A') (A') (A') (A') (A") (A') (A")
                 (A') (A') (A') (A") (A") (A')
       Virtual   (A') (A') (A') (A") (A') (A") (A') (A') (A") (A')
                 (A") (A') (A") (A') (A') (A") (A') (A') (A') (A")
                 (A") (A') (A') (A') (A") (A') (A') (A") (A") (A')
                 (A') (A") (A') (A') (A') (A") (A") (A') (A') (A')
                 (A") (A") (A') (A') (A") (A") (A') (A') (A') (A")
                 (A') (A") (A") (A") (A') (A') (A') (A") (A") (A')
                 (A') (A') (A") (A") (A") (A') (A') (A') (A") (A')
                 (A') (A') (A') (A') (A") (A') (A") (A") (A") (A')
                 (A') (A") (A') (A") (A') (A') (A') (A") (A') (A')
                 (A") (A') (A") (A") (A') (A') (A') (A') (A") (A")
                 (A') (A') (A') (A')
 The electronic state is 1-A'.
 Alpha  occ. eigenvalues --  -14.42383 -14.42381  -6.84704  -6.84699  -0.97602
 Alpha  occ. eigenvalues --   -0.95239  -0.62646  -0.60039  -0.59475  -0.58151
 Alpha  occ. eigenvalues --   -0.47412  -0.47398  -0.43209  -0.40063  -0.39383
 Alpha  occ. eigenvalues --   -0.32724
 Alpha virt. eigenvalues --    0.08767   0.10914   0.14779   0.15177   0.18139
 Alpha virt. eigenvalues --    0.19275   0.20594   0.20836   0.23716   0.24736
 Alpha virt. eigenvalues --    0.26527   0.27189   0.33464   0.35166   0.39228
 Alpha virt. eigenvalues --    0.42455   0.45358   0.47427   0.48797   0.52258
 Alpha virt. eigenvalues --    0.52613   0.53992   0.55108   0.58573   0.62734
 Alpha virt. eigenvalues --    0.63045   0.65012   0.69342   0.77244   0.77294
 Alpha virt. eigenvalues --    0.78257   0.79734   0.81688   0.91268   0.91460
 Alpha virt. eigenvalues --    1.05150   1.05988   1.09360   1.11143   1.16972
 Alpha virt. eigenvalues --    1.19732   1.26577   1.26814   1.29875   1.32990
 Alpha virt. eigenvalues --    1.36868   1.38326   1.44422   1.63907   1.64349
 Alpha virt. eigenvalues --    1.70777   1.71340   1.72248   1.76547   1.77062
 Alpha virt. eigenvalues --    1.81362   1.85079   1.85191   1.88083   1.95016
 Alpha virt. eigenvalues --    1.97451   2.00779   2.02131   2.03216   2.08547
 Alpha virt. eigenvalues --    2.10444   2.14427   2.19659   2.20918   2.21176
 Alpha virt. eigenvalues --    2.29088   2.38433   2.51223   2.51404   2.54577
 Alpha virt. eigenvalues --    2.56050   2.56745   2.64472   2.64550   2.69865
 Alpha virt. eigenvalues --    2.73151   2.77972   2.78493   2.78507   2.82683
 Alpha virt. eigenvalues --    2.89996   2.92899   2.97061   3.01025   3.05264
 Alpha virt. eigenvalues --    3.05751   3.17437   3.23911   3.32452   4.00767
 Alpha virt. eigenvalues --    4.08980   4.63425   4.73218   4.85415   4.85492
 Alpha virt. eigenvalues --   14.68421  14.80204  35.70288  35.74623
          Condensed to atoms (all electrons):
               1          2          3          4          5          6
     1  B    3.589201   0.126230   0.360473  -0.027811  -0.031939  -0.031939
     2  N    0.126230   6.431298  -0.061657   0.360385   0.002559   0.002559
     3  N    0.360473  -0.061657   6.431119   0.126176   0.372069   0.372069
     4  B   -0.027811   0.360385   0.126176   3.589047  -0.005023  -0.005023
     5  H   -0.031939   0.002559   0.372069  -0.005023   0.463612  -0.031666
     6  H   -0.031939   0.002559   0.372069  -0.005023  -0.031666   0.463612
     7  H   -0.001101  -0.022334  -0.018463   0.433011  -0.002347   0.001559
     8  H   -0.001101  -0.022334  -0.018463   0.433011   0.001559  -0.002347
     9  H   -0.005030   0.372067   0.002557  -0.031919  -0.000208  -0.000037
    10  H   -0.005030   0.372067   0.002557  -0.031919  -0.000037  -0.000208
    11  H    0.433007  -0.018448  -0.022295  -0.001109   0.005374  -0.010141
    12  H    0.433007  -0.018448  -0.022295  -0.001109  -0.010141   0.005374
               7          8          9         10         11         12
     1  B   -0.001101  -0.001101  -0.005030  -0.005030   0.433007   0.433007
     2  N   -0.022334  -0.022334   0.372067   0.372067  -0.018448  -0.018448
     3  N   -0.018463  -0.018463   0.002557   0.002557  -0.022295  -0.022295
     4  B    0.433011   0.433011  -0.031919  -0.031919  -0.001109  -0.001109
     5  H   -0.002347   0.001559  -0.000208  -0.000037   0.005374  -0.010141
     6  H    0.001559  -0.002347  -0.000037  -0.000208  -0.010141   0.005374
     7  H    0.689423  -0.020163   0.005373  -0.010133  -0.000750   0.001210
     8  H   -0.020163   0.689423  -0.010133   0.005373   0.001210  -0.000750
     9  H    0.005373  -0.010133   0.463639  -0.031677  -0.002346   0.001559
    10  H   -0.010133   0.005373  -0.031677   0.463639   0.001559  -0.002346
    11  H   -0.000750   0.001210  -0.002346   0.001559   0.689539  -0.020281
    12  H    0.001210  -0.000750   0.001559  -0.002346  -0.020281   0.689539
 Mulliken charges:
               1
     1  B    0.162031
     2  N   -0.523943
     3  N   -0.523848
     4  B    0.162283
     5  H    0.236188
     6  H    0.236188
     7  H   -0.055286
     8  H   -0.055286
     9  H    0.236156
    10  H    0.236156
    11  H   -0.055318
    12  H   -0.055318
 Sum of Mulliken charges =   0.00000
 Mulliken charges with hydrogens summed into heavy atoms:
               1
     1  B    0.051394
     2  N   -0.051632
     3  N   -0.051472
     4  B    0.051710
 Electronic spatial extent (au):  <R**2>=            323.8586
 Charge=              0.0000 electrons
 Dipole moment (field-independent basis, Debye):
    X=              0.0009    Y=             -0.0014    Z=              0.0000  Tot=              0.0016
 Quadrupole moment (field-independent basis, Debye-Ang):
   XX=            -20.4018   YY=            -33.6588   ZZ=            -26.7998
   XY=              3.0694   XZ=              0.0000   YZ=              0.0000
 Traceless Quadrupole moment (field-independent basis, Debye-Ang):
   XX=              6.5516   YY=             -6.7053   ZZ=              0.1537
   XY=              3.0694   XZ=              0.0000   YZ=              0.0000
 Octapole moment (field-independent basis, Debye-Ang**2):
  XXX=             -0.0005  YYY=             -0.0066  ZZZ=              0.0000  XYY=              0.0007
  XXY=              0.0017  XXZ=              0.0000  XZZ=              0.0018  YZZ=             -0.0034
  YYZ=              0.0000  XYZ=              0.0000
 Hexadecapole moment (field-independent basis, Debye-Ang**3):
 XXXX=           -144.8173 YYYY=           -241.3185 ZZZZ=            -66.4451 XXXY=             -8.1852
 XXXZ=              0.0000 YYYX=            -11.8436 YYYZ=              0.0000 ZZZX=              0.0000
 ZZZY=              0.0000 XXYY=            -69.9342 XXZZ=            -28.1345 YYZZ=            -54.0375
 XXYZ=              0.0000 YYXZ=              0.0000 ZZXY=             -1.3327
 N-N= 1.154022286573D+02 E-N=-6.119606823572D+02  KE= 1.632227934842D+02
 Symmetry A'   KE= 1.548386162061D+02
 Symmetry A"   KE= 8.384177278095D+00
 No NMR shielding tensors so no spin-rotation constants.
 Leave Link  601 at Thu Mar  9 15:09:53 2017, MaxMem=   563347456 cpu:         0.9
 (Enter /share/apps/g09RelD.01/g09/l701.exe)
 Compute integral first derivatives.
 ... and contract with generalized density number  0.
 R6Disp: Adding Grimme-D2 dispersion energy 1st derivatives to the gradient.
 Leave Link  701 at Thu Mar  9 15:09:53 2017, MaxMem=   563347456 cpu:         0.9
 (Enter /share/apps/g09RelD.01/g09/l702.exe)
 L702 exits ... SP integral derivatives will be done elsewhere.
 Leave Link  702 at Thu Mar  9 15:09:53 2017, MaxMem=   563347456 cpu:         0.2
 (Enter /share/apps/g09RelD.01/g09/l703.exe)
 Compute integral first derivatives, UseDBF=F ICtDFT=           0.
 Integral derivatives from FoFJK, PRISM(SPDF).
 Calling FoFJK, ICntrl=      2127 FMM=F ISym2X=1 I1Cent= 0 IOpClX= 0 NMat=1 NMatS=1 NMatT=0.
 FoFJK:  IHMeth= 1 ICntrl=    2127 DoSepK=T KAlg= 0 I1Cent=   0 FoldK=F
 IRaf=         1 NMat=   1 IRICut=       1 DoRegI=T DoRafI=F ISym2E= 1.
 FoFCou: FMM=F IPFlag=           0 FMFlag=      100000 FMFlg1=         800
         NFxFlg=           0 DoJE=F BraDBF=F KetDBF=F FulRan=T
         wScrn=  0.000000 ICntrl=    2527 IOpCl=  0 I1Cent=           0 NGrid=           0
         NMat0=    1 NMatS0=      1 NMatT0=    0 NMatD0=    1 NMtDS0=    0 NMtDT0=    0
 Petite list used in FoFCou.
 Leave Link  703 at Thu Mar  9 15:09:58 2017, MaxMem=   563347456 cpu:        18.8
 (Enter /share/apps/g09RelD.01/g09/l716.exe)
 Dipole        = 3.34505199D-04-5.53773440D-04 0.00000000D+00
 ***** Axes restored to original set *****
 -------------------------------------------------------------------
 Center     Atomic                   Forces (Hartrees/Bohr)
 Number     Number              X              Y              Z
 -------------------------------------------------------------------
      1        5           0.007384952    0.009385108    0.000000000
      2        7          -0.007073728   -0.009400424    0.000000000
      3        7           0.007045819    0.009414027    0.000000000
      4        5          -0.007161138   -0.009581029    0.000000000
      5        1           0.000041061    0.000067155    0.000018014
      6        1           0.000041061    0.000067155   -0.000018014
      7        1          -0.000018407    0.000049311   -0.000017112
      8        1          -0.000018407    0.000049311    0.000017112
      9        1          -0.000070776   -0.000062811   -0.000023941
     10        1          -0.000070776   -0.000062811    0.000023941
     11        1          -0.000049830    0.000037503   -0.000025051
     12        1          -0.000049830    0.000037503    0.000025051
 -------------------------------------------------------------------
 Cartesian Forces:  Max     0.009581029 RMS     0.003952552
 Leave Link  716 at Thu Mar  9 15:09:58 2017, MaxMem=   563347456 cpu:         0.2
 (Enter /share/apps/g09RelD.01/g09/l103.exe)

 GradGradGradGradGradGradGradGradGradGradGradGradGradGradGradGradGradGrad
 Berny optimization.
 FormGI is forming the generalized inverse of G from B-inverse, IUseBI=4.
 Internal  Forces:  Max     0.011941040 RMS     0.001988086
 Search for a local minimum.
 Step number   1 out of a maximum of   82 on scan point     1 out of     2
 All quantities printed in internal units (Hartrees-Bohrs-Radians)
 RMS Force = .30979D-04 SwitMx=.10000D-02 MixMth= 2
 Mixed Optimization -- En-DIIS/RFO-DIIS
 Second derivative matrix not updated -- first step.
 ITU=  0
     Eigenvalues ---    0.00491   0.02553   0.03101   0.03487   0.04307
     Eigenvalues ---    0.04496   0.04583   0.04716   0.06551   0.06800
     Eigenvalues ---    0.07031   0.07211   0.07511   0.07628   0.07648
     Eigenvalues ---    0.08390   0.08852   0.21668   0.24884   0.24884
     Eigenvalues ---    0.24889   0.24889   0.32338   0.34373   0.46335
     Eigenvalues ---    0.46335   0.46337   0.463371000.000001000.00000
     Eigenvalues --- 1000.000001000.000001000.000001000.000001000.00000
     Eigenvalues --- 1000.000001000.000001000.000001000.000001000.00000
     Eigenvalues --- 1000.000001000.000001000.000001000.000001000.00000
     Eigenvalues --- 1000.000001000.000001000.000001000.000001000.00000
     Eigenvalues --- 1000.000001000.000001000.000001000.000001000.00000
     Eigenvalues --- 1000.000001000.000001000.000001000.000001000.00000
     Eigenvalues --- 1000.000001000.000001000.000001000.000001000.00000
     Eigenvalues --- 1000.000001000.000001000.000001000.000001000.00000
     Eigenvalues --- 1000.000001000.00000
 RFO step:  Lambda=-6.80077005D-07 EMin= 4.91210579D-03
 Linear search not attempted -- first point.
 Iteration  1 RMS(Cart)=  0.00029573 RMS(Int)=  0.00000014
 Iteration  2 RMS(Cart)=  0.00000010 RMS(Int)=  0.00000011
 Iteration  1 RMS(Cart)=  0.00000000 RMS(Int)=  0.00000000
 ITry= 1 IFail=0 DXMaxC= 7.44D-04 DCOld= 1.00D+10 DXMaxT= 3.00D-01 DXLimC= 3.00D+00 Rises=F
 ClnCor:  largest displacement from symmetrization is 2.57D-12 for atom     8.
 Variable       Old X    -DE/DX   Delta X   Delta X   Delta X     New X
                                 (Linear)    (Quad)   (Total)
    R1        3.97400  -0.01194   0.00000   0.00000   0.00000   3.97400
    R2        2.79984   0.00008   0.00000   0.00025   0.00025   2.80009
    R3        2.26204  -0.00001   0.00000  -0.00003  -0.00003   2.26200
    R4        2.26204  -0.00001   0.00000  -0.00003  -0.00003   2.26200
    R5        2.80026   0.00001   0.00000   0.00002   0.00002   2.80028
    R6        1.90456  -0.00002   0.00000  -0.00004  -0.00004   1.90451
    R7        1.90456  -0.00002   0.00000  -0.00004  -0.00004   1.90451
    R8        3.97400  -0.01191   0.00000   0.00000   0.00000   3.97400
    R9        1.90453  -0.00001   0.00000  -0.00002  -0.00002   1.90451
   R10        1.90453  -0.00001   0.00000  -0.00002  -0.00002   1.90451
   R11        2.26190   0.00001   0.00000   0.00004   0.00004   2.26194
   R12        2.26190   0.00001   0.00000   0.00004   0.00004   2.26194
    A1        1.66161  -0.00007   0.00000  -0.00023  -0.00023   1.66138
    A2        1.72812   0.00003   0.00000   0.00017   0.00017   1.72829
    A3        1.72812   0.00003   0.00000   0.00017   0.00017   1.72829
    A4        2.04765  -0.00002   0.00000  -0.00035  -0.00035   2.04730
    A5        2.04765  -0.00002   0.00000  -0.00035  -0.00035   2.04730
    A6        2.09366   0.00004   0.00000   0.00064   0.00064   2.09429
    A7        1.48000   0.00008   0.00000   0.00022   0.00022   1.48022
    A8        1.91506  -0.00006   0.00000  -0.00069  -0.00069   1.91436
    A9        1.91506  -0.00006   0.00000  -0.00069  -0.00069   1.91436
   A10        2.07058  -0.00001   0.00000   0.00012   0.00012   2.07070
   A11        2.07058  -0.00001   0.00000   0.00012   0.00012   2.07070
   A12        1.94584   0.00005   0.00000   0.00049   0.00049   1.94633
   A13        1.48009   0.00005   0.00000   0.00017   0.00017   1.48026
   A14        2.07038   0.00000   0.00000   0.00025   0.00025   2.07063
   A15        2.07038   0.00000   0.00000   0.00025   0.00025   2.07063
   A16        1.91506  -0.00005   0.00000  -0.00066  -0.00066   1.91439
   A17        1.91506  -0.00005   0.00000  -0.00066  -0.00066   1.91439
   A18        1.94612   0.00003   0.00000   0.00028   0.00028   1.94640
   A19        1.66149  -0.00006   0.00000  -0.00017  -0.00017   1.66132
   A20        2.04670   0.00002   0.00000   0.00016   0.00016   2.04686
   A21        2.04670   0.00002   0.00000   0.00016   0.00016   2.04686
   A22        1.72788   0.00003   0.00000   0.00026   0.00026   1.72814
   A23        1.72788   0.00003   0.00000   0.00026   0.00026   1.72814
   A24        2.09579  -0.00004   0.00000  -0.00048  -0.00048   2.09531
    D1        0.00000   0.00000   0.00000   0.00000   0.00000   0.00000
    D2       -2.06982  -0.00001   0.00000  -0.00015  -0.00015  -2.06996
    D3        2.06982   0.00001   0.00000   0.00015   0.00015   2.06996
    D4        2.07270  -0.00003   0.00000  -0.00038  -0.00038   2.07232
    D5        0.00288  -0.00004   0.00000  -0.00053  -0.00053   0.00235
    D6       -2.14066  -0.00002   0.00000  -0.00024  -0.00024  -2.14090
    D7       -2.07270   0.00003   0.00000   0.00038   0.00038  -2.07232
    D8        2.14066   0.00002   0.00000   0.00024   0.00024   2.14090
    D9       -0.00288   0.00004   0.00000   0.00053   0.00053  -0.00235
   D10        0.00000   0.00000   0.00000   0.00000   0.00000   0.00000
   D11       -1.91393   0.00003   0.00000   0.00064   0.00064  -1.91329
   D12        1.91393  -0.00003   0.00000  -0.00064  -0.00064   1.91329
   D13       -1.79684   0.00000   0.00000   0.00001   0.00001  -1.79683
   D14        2.57242   0.00003   0.00000   0.00065   0.00065   2.57307
   D15        0.11709  -0.00002   0.00000  -0.00063  -0.00063   0.11646
   D16        1.79684   0.00000   0.00000  -0.00001  -0.00001   1.79683
   D17       -0.11709   0.00002   0.00000   0.00063   0.00063  -0.11646
   D18       -2.57242  -0.00003   0.00000  -0.00065  -0.00065  -2.57307
   D19        0.00000   0.00000   0.00000   0.00000   0.00000   0.00000
   D20        1.79630   0.00001   0.00000   0.00024   0.00024   1.79654
   D21       -1.79630  -0.00001   0.00000  -0.00024  -0.00024  -1.79654
   D22        1.91390  -0.00003   0.00000  -0.00066  -0.00066   1.91324
   D23       -2.57299  -0.00002   0.00000  -0.00041  -0.00041  -2.57340
   D24        0.11760  -0.00004   0.00000  -0.00090  -0.00090   0.11670
   D25       -1.91390   0.00003   0.00000   0.00066   0.00066  -1.91324
   D26       -0.11760   0.00004   0.00000   0.00090   0.00090  -0.11670
   D27        2.57299   0.00002   0.00000   0.00041   0.00041   2.57340
   D28        0.00000   0.00000   0.00000   0.00000   0.00000   0.00000
   D29       -2.07165  -0.00001   0.00000  -0.00018  -0.00018  -2.07182
   D30        2.07165   0.00001   0.00000   0.00018   0.00018   2.07182
   D31        2.06964   0.00001   0.00000   0.00026   0.00026   2.06990
   D32       -0.00201   0.00000   0.00000   0.00009   0.00009  -0.00192
   D33       -2.14190   0.00002   0.00000   0.00044   0.00044  -2.14146
   D34       -2.06964  -0.00001   0.00000  -0.00026  -0.00026  -2.06990
   D35        2.14190  -0.00002   0.00000  -0.00044  -0.00044   2.14146
   D36        0.00201   0.00000   0.00000  -0.00009  -0.00009   0.00192
         Item               Value     Threshold  Converged?
 Maximum Force            0.000080     0.002500     YES
 RMS     Force            0.000031     0.001667     YES
 Maximum Displacement     0.000744     0.010000     YES
 RMS     Displacement     0.000296     0.006667     YES
 Predicted change in Energy=-3.400657D-07
 Optimization completed.
    -- Stationary point found.
                           ----------------------------
                           !   Optimized Parameters   !
                           ! (Angstroms and Degrees)  !
 --------------------------                            --------------------------
 ! Name  Definition              Value          Derivative Info.                !
 --------------------------------------------------------------------------------
 ! R1    R(1,2)                  2.1029         -DE/DX =   -0.0119              !
 ! R2    R(1,3)                  1.4816         -DE/DX =    0.0001              !
 ! R3    R(1,11)                 1.197          -DE/DX =    0.0                 !
 ! R4    R(1,12)                 1.197          -DE/DX =    0.0                 !
 ! R5    R(2,4)                  1.4818         -DE/DX =    0.0                 !
 ! R6    R(2,9)                  1.0078         -DE/DX =    0.0                 !
 ! R7    R(2,10)                 1.0078         -DE/DX =    0.0                 !
 ! R8    R(3,4)                  2.103          -DE/DX =   -0.0119              !
 ! R9    R(3,5)                  1.0078         -DE/DX =    0.0                 !
 ! R10   R(3,6)                  1.0078         -DE/DX =    0.0                 !
 ! R11   R(4,7)                  1.1969         -DE/DX =    0.0                 !
 ! R12   R(4,8)                  1.1969         -DE/DX =    0.0                 !
 ! A1    A(2,1,3)               95.2031         -DE/DX =   -0.0001              !
 ! A2    A(2,1,11)              99.0139         -DE/DX =    0.0                 !
 ! A3    A(2,1,12)              99.0139         -DE/DX =    0.0                 !
 ! A4    A(3,1,11)             117.322          -DE/DX =    0.0                 !
 ! A5    A(3,1,12)             117.322          -DE/DX =    0.0                 !
 ! A6    A(11,1,12)            119.9576         -DE/DX =    0.0                 !
 ! A7    A(1,2,4)               84.7977         -DE/DX =    0.0001              !
 ! A8    A(1,2,9)              109.7246         -DE/DX =   -0.0001              !
 ! A9    A(1,2,10)             109.7246         -DE/DX =   -0.0001              !
 ! A10   A(4,2,9)              118.6353         -DE/DX =    0.0                 !
 ! A11   A(4,2,10)             118.6353         -DE/DX =    0.0                 !
 ! A12   A(9,2,10)             111.4883         -DE/DX =    0.0001              !
 ! A13   A(1,3,4)               84.8029         -DE/DX =    0.0001              !
 ! A14   A(1,3,5)              118.624          -DE/DX =    0.0                 !
 ! A15   A(1,3,6)              118.624          -DE/DX =    0.0                 !
 ! A16   A(4,3,5)              109.7246         -DE/DX =    0.0                 !
 ! A17   A(4,3,6)              109.7246         -DE/DX =    0.0                 !
 ! A18   A(5,3,6)              111.5046         -DE/DX =    0.0                 !
 ! A19   A(2,4,3)               95.1962         -DE/DX =   -0.0001              !
 ! A20   A(2,4,7)              117.2673         -DE/DX =    0.0                 !
 ! A21   A(2,4,8)              117.2673         -DE/DX =    0.0                 !
 ! A22   A(3,4,7)               99.0003         -DE/DX =    0.0                 !
 ! A23   A(3,4,8)               99.0003         -DE/DX =    0.0                 !
 ! A24   A(7,4,8)              120.08           -DE/DX =    0.0                 !
 ! D1    D(3,1,2,4)              0.0            -DE/DX =    0.0                 !
 ! D2    D(3,1,2,9)           -118.5918         -DE/DX =    0.0                 !
 ! D3    D(3,1,2,10)           118.5918         -DE/DX =    0.0                 !
 ! D4    D(11,1,2,4)           118.7571         -DE/DX =    0.0                 !
 ! D5    D(11,1,2,9)             0.1653         -DE/DX =    0.0                 !
 ! D6    D(11,1,2,10)         -122.651          -DE/DX =    0.0                 !
 ! D7    D(12,1,2,4)          -118.7571         -DE/DX =    0.0                 !
 ! D8    D(12,1,2,9)           122.651          -DE/DX =    0.0                 !
 ! D9    D(12,1,2,10)           -0.1653         -DE/DX =    0.0                 !
 ! D10   D(2,1,3,4)              0.0            -DE/DX =    0.0                 !
 ! D11   D(2,1,3,5)           -109.6601         -DE/DX =    0.0                 !
 ! D12   D(2,1,3,6)            109.6601         -DE/DX =    0.0                 !
 ! D13   D(11,1,3,4)          -102.9512         -DE/DX =    0.0                 !
 ! D14   D(11,1,3,5)           147.3887         -DE/DX =    0.0                 !
 ! D15   D(11,1,3,6)             6.7088         -DE/DX =    0.0                 !
 ! D16   D(12,1,3,4)           102.9512         -DE/DX =    0.0                 !
 ! D17   D(12,1,3,5)            -6.7088         -DE/DX =    0.0                 !
 ! D18   D(12,1,3,6)          -147.3887         -DE/DX =    0.0                 !
 ! D19   D(1,2,4,3)              0.0            -DE/DX =    0.0                 !
 ! D20   D(1,2,4,7)            102.9203         -DE/DX =    0.0                 !
 ! D21   D(1,2,4,8)           -102.9203         -DE/DX =    0.0                 !
 ! D22   D(9,2,4,3)            109.6583         -DE/DX =    0.0                 !
 ! D23   D(9,2,4,7)           -147.4214         -DE/DX =    0.0                 !
 ! D24   D(9,2,4,8)              6.7379         -DE/DX =    0.0                 !
 ! D25   D(10,2,4,3)          -109.6583         -DE/DX =    0.0                 !
 ! D26   D(10,2,4,7)            -6.7379         -DE/DX =    0.0                 !
 ! D27   D(10,2,4,8)           147.4214         -DE/DX =    0.0                 !
 ! D28   D(1,3,4,2)              0.0            -DE/DX =    0.0                 !
 ! D29   D(1,3,4,7)           -118.6966         -DE/DX =    0.0                 !
 ! D30   D(1,3,4,8)            118.6966         -DE/DX =    0.0                 !
 ! D31   D(5,3,4,2)            118.5816         -DE/DX =    0.0                 !
 ! D32   D(5,3,4,7)             -0.115          -DE/DX =    0.0                 !
 ! D33   D(5,3,4,8)           -122.7218         -DE/DX =    0.0                 !
 ! D34   D(6,3,4,2)           -118.5816         -DE/DX =    0.0                 !
 ! D35   D(6,3,4,7)            122.7218         -DE/DX =    0.0                 !
 ! D36   D(6,3,4,8)              0.115          -DE/DX =    0.0                 !
 --------------------------------------------------------------------------------
 Lowest energy point so far.  Saving SCF results.
 Iteration  1 RMS(Cart)=  0.02723553 RMS(Int)=  0.00821281
 Iteration  2 RMS(Cart)=  0.00009697 RMS(Int)=  0.00821252
 Iteration  3 RMS(Cart)=  0.00000040 RMS(Int)=  0.00821252
 Iteration  1 RMS(Cart)=  0.00523157 RMS(Int)=  0.00223364
 Iteration  2 RMS(Cart)=  0.00142293 RMS(Int)=  0.00244482
 Iteration  3 RMS(Cart)=  0.00038705 RMS(Int)=  0.00256665
 Iteration  4 RMS(Cart)=  0.00010528 RMS(Int)=  0.00260366
 Iteration  5 RMS(Cart)=  0.00002864 RMS(Int)=  0.00261399
 Iteration  6 RMS(Cart)=  0.00000779 RMS(Int)=  0.00261682
 Iteration  7 RMS(Cart)=  0.00000212 RMS(Int)=  0.00261759
 Iteration  8 RMS(Cart)=  0.00000058 RMS(Int)=  0.00261780
 GradGradGradGradGradGradGradGradGradGradGradGradGradGradGradGradGradGrad

 Leave Link  103 at Thu Mar  9 15:09:58 2017, MaxMem=   563347456 cpu:         0.2
 (Enter /share/apps/g09RelD.01/g09/l202.exe)
                          Input orientation:                          
 ---------------------------------------------------------------------
 Center     Atomic      Atomic             Coordinates (Angstroms)
 Number     Number       Type             X           Y           Z
 ---------------------------------------------------------------------
      1          5           0       -0.025446   -1.271957    0.000000
      2          7           0        1.292211    0.493479    0.000000
      3          7           0       -1.259221   -0.453296    0.000000
      4          5           0        0.003176    1.228595    0.000000
      5          1           0       -1.823491   -0.440789    0.834961
      6          1           0       -1.823491   -0.440789   -0.834961
      7          1           0       -0.349548    1.709088    1.038005
      8          1           0       -0.349548    1.709088   -1.038005
      9          1           0        1.861868    0.505261   -0.831308
     10          1           0        1.861868    0.505261    0.831308
     11          1           0        0.306270   -1.772623   -1.035432
     12          1           0        0.306270   -1.772623    1.035432
 ---------------------------------------------------------------------
                    Distance matrix (angstroms):
                    1          2          3          4          5
     1  B    0.000000
     2  N    2.202949   0.000000
     3  N    1.480678   2.721431   0.000000
     4  B    2.500716   1.483917   2.102951   0.000000
     5  H    2.149643   3.358216   1.007827   2.611650   0.000000
     6  H    2.149643   3.358216   1.007827   2.611650   1.669921
     7  H    3.173189   2.291404   2.565319   1.196972   2.614518
     8  H    3.173189   2.291404   2.565319   1.196972   3.209748
     9  H    2.722413   1.007829   3.369139   2.160792   4.153713
    10  H    2.722413   1.007829   3.369139   2.160792   3.804851
    11  H    1.197005   2.679443   2.294233   3.189247   3.131778
    12  H    1.197005   2.679443   2.294233   3.189247   2.519891
                    6          7          8          9         10
     6  H    0.000000
     7  H    3.209748   0.000000
     8  H    2.614518   2.076010   0.000000
     9  H    3.804851   3.135903   2.526318   0.000000
    10  H    4.153713   2.526318   3.135903   1.662615   0.000000
    11  H    2.519891   4.105064   3.542938   2.765919   3.330669
    12  H    3.131778   3.542938   4.105064   3.330669   2.765919
                   11         12
    11  H    0.000000
    12  H    2.070864   0.000000
 Stoichiometry    B2H8N2
 Framework group  CS[SG(B2N2),X(H8)]
 Deg. of freedom    17
 Full point group                 CS      NOp   2
 RotChk:  IX=3 Diff= 2.94D-04
 Largest Abelian subgroup         CS      NOp   2
 Largest concise Abelian subgroup CS      NOp   2
                         Standard orientation:                         
 ---------------------------------------------------------------------
 Center     Atomic      Atomic             Coordinates (Angstroms)
 Number     Number       Type             X           Y           Z
 ---------------------------------------------------------------------
      1          5           0        0.029141    1.274025    0.000000
      2          7           0       -1.288883   -0.491138    0.000000
      3          7           0        1.262746    0.455107    0.000000
      4          5           0        0.000000   -1.226522    0.000000
      5          1           0        1.827013    0.442483    0.834961
      6          1           0        1.827013    0.442483   -0.834961
      7          1           0        0.352623   -1.707088    1.038005
      8          1           0        0.352623   -1.707088   -1.038005
      9          1           0       -1.858542   -0.502801   -0.831308
     10          1           0       -1.858542   -0.502801    0.831308
     11          1           0       -0.302471    1.774759   -1.035432
     12          1           0       -0.302471    1.774759    1.035432
 ---------------------------------------------------------------------
 Rotational constants (GHZ):     11.1954112      6.1122925      4.4502450
 Leave Link  202 at Thu Mar  9 15:09:58 2017, MaxMem=   563347456 cpu:         0.0
 (Enter /share/apps/g09RelD.01/g09/l301.exe)
 Standard basis: 6-311G(d,p) (5D, 7F)
 Ernie: Thresh=  0.10000D-02 Tol=  0.10000D-05 Strict=F.
 There are    80 symmetry adapted cartesian basis functions of A'  symmetry.
 There are    44 symmetry adapted cartesian basis functions of A"  symmetry.
 There are    76 symmetry adapted basis functions of A'  symmetry.
 There are    44 symmetry adapted basis functions of A"  symmetry.
   120 basis functions,   192 primitive gaussians,   124 cartesian basis functions
    16 alpha electrons       16 beta electrons
       nuclear repulsion energy       114.4786912274 Hartrees.
 IExCor= 4639 DFT=T Ex+Corr=wB97XD ExCW=0 ScaHFX=  1.000000
 ScaDFX=  1.000000  1.000000  1.000000  1.000000 ScalE2=  1.000000  1.000000
 IRadAn=      5 IRanWt=     -1 IRanGd=            0 ICorTp=0 IEmpDi=121
  HFx wShort=  0.000000 wLong=  0.200000 cFull=  0.222036 cShort=  0.000000 cLong=  0.777964
  DFx wShort=  0.000000 wLong=  0.200000 cFull=  0.000000 cShort=  0.000000 cLong=  1.000000
 NAtoms=   12 NActive=   12 NUniq=    8 SFac= 2.25D+00 NAtFMM=   60 NAOKFM=F Big=F
 Integral buffers will be    131072 words long.
 Raffenetti 2 integral format.
 Two-electron integral symmetry is turned on.
 R6Disp:  Grimme-D2 Dispersion energy=       -0.0055171753 Hartrees.
 Nuclear repulsion after empirical dispersion term =      114.4731740521 Hartrees.
 Leave Link  301 at Thu Mar  9 15:09:58 2017, MaxMem=   563347456 cpu:         0.3
 (Enter /share/apps/g09RelD.01/g09/l302.exe)
 NPDir=0 NMtPBC=     1 NCelOv=     1 NCel=       1 NClECP=     1 NCelD=      1
         NCelK=      1 NCelE2=     1 NClLst=     1 CellRange=     0.0.
 One-electron integrals computed using PRISM.
 One-electron integral symmetry used in STVInt
 NBasis=   120 RedAO= T EigKep=  5.87D-03  NBF=    76    44
 NBsUse=   120 1.00D-06 EigRej= -1.00D+00 NBFU=    76    44
 Precomputing XC quadrature grid using
 IXCGrd= 4 IRadAn=           5 IRanWt=          -1 IRanGd=           0 AccXCQ= 0.00D+00.
 Generated NRdTot=       0 NPtTot=           0 NUsed=           0 NTot=          32
 NSgBfM=   124   124   124   124   124 MxSgAt=    12 MxSgA2=    12.
 Leave Link  302 at Thu Mar  9 15:09:59 2017, MaxMem=   563347456 cpu:         1.4
 (Enter /share/apps/g09RelD.01/g09/l303.exe)
 DipDrv:  MaxL=1.
 Leave Link  303 at Thu Mar  9 15:09:59 2017, MaxMem=   563347456 cpu:         0.2
 (Enter /share/apps/g09RelD.01/g09/l401.exe)
 Initial guess from the checkpoint file:  "AB-AB-NHscan.chk"
 B after Tr=     0.000000    0.000000    0.000000
         Rot=    1.000000    0.000000    0.000000   -0.000585 Ang=  -0.07 deg.
 Guess basis will be translated and rotated to current coordinates.
 JPrj=2 DoOrth=T DoCkMO=T.
 Initial guess orbital symmetries:
       Occupied  (A') (A') (A') (A') (A') (A') (A') (A") (A') (A")
                 (A') (A') (A') (A") (A") (A')
       Virtual   (A') (A') (A') (A') (A') (A') (A') (A') (A') (A')
                 (A') (A') (A') (A') (A') (A') (A') (A') (A') (A')
                 (A') (A') (A') (A') (A') (A') (A') (A') (A') (A')
                 (A') (A') (A') (A') (A') (A') (A') (A') (A') (A')
                 (A') (A') (A') (A') (A') (A') (A') (A') (A') (A')
                 (A') (A') (A') (A') (A') (A') (A') (A') (A') (A')
                 (A') (A') (A') (A') (A") (A") (A") (A") (A") (A")
                 (A") (A") (A") (A") (A") (A") (A") (A") (A") (A")
                 (A") (A") (A") (A") (A") (A") (A") (A") (A") (A")
                 (A") (A") (A") (A") (A") (A") (A") (A") (A") (A")
                 (A") (A") (A") (A")
 The electronic state of the initial guess is 1-A'.
 Generating alternative initial guess.
 ExpMin= 9.89D-02 ExpMax= 6.29D+03 ExpMxC= 9.49D+02 IAcc=2 IRadAn=         4 AccDes= 0.00D+00
 Harris functional with IExCor= 4639 and IRadAn=       4 diagonalized for initial guess.
 HarFok:  IExCor= 4639 AccDes= 0.00D+00 IRadAn=         4 IDoV= 1 UseB2=F ITyADJ=14
 ICtDFT=  3500011 ScaDFX=  1.000000  1.000000  1.000000  1.000000
 FoFCou: FMM=F IPFlag=           0 FMFlag=      100000 FMFlg1=           0
         NFxFlg=           0 DoJE=T BraDBF=F KetDBF=T FulRan=T
         wScrn=  0.000000 ICntrl=     500 IOpCl=  0 I1Cent=   200000004 NGrid=           0
         NMat0=    1 NMatS0=      1 NMatT0=    0 NMatD0=    1 NMtDS0=    0 NMtDT0=    0
 Petite list used in FoFCou.
 Harris En= -156.189701394921    
 Leave Link  401 at Thu Mar  9 15:10:00 2017, MaxMem=   563347456 cpu:         2.7
 (Enter /share/apps/g09RelD.01/g09/l502.exe)
 Closed shell SCF:
 Using DIIS extrapolation, IDIIS=  1040.
 Integral symmetry usage will be decided dynamically.
 Keep R1 ints in memory in symmetry-blocked form, NReq=79321962.
 IVT=       66538 IEndB=       66538 NGot=   563347456 MDV=   550002801
 LenX=   550002801 LenY=   549986984
 Requested convergence on RMS density matrix=1.00D-08 within 128 cycles.
 Requested convergence on MAX density matrix=1.00D-06.
 Requested convergence on             energy=1.00D-06.
 No special actions if energy rises.
 FoFCou: FMM=F IPFlag=           0 FMFlag=           0 FMFlg1=           0
         NFxFlg=           0 DoJE=F BraDBF=F KetDBF=F FulRan=T
         wScrn=  0.000000 ICntrl=     600 IOpCl=  0 I1Cent=           0 NGrid=           0
         NMat0=    1 NMatS0=   7260 NMatT0=    0 NMatD0=    1 NMtDS0=    0 NMtDT0=    0
 Petite list used in FoFCou.
 Integral accuracy reduced to 1.0D-05 until final iterations.

 Cycle   1  Pass 0  IDiag  1:
 E= -164.061972995558    
 DIIS: error= 2.68D-03 at cycle   1 NSaved=   1.
 NSaved= 1 IEnMin= 1 EnMin= -164.061972995558     IErMin= 1 ErrMin= 2.68D-03
 ErrMax= 2.68D-03  0.00D+00 EMaxC= 1.00D-01 BMatC= 6.03D-04 BMatP= 6.03D-04
 IDIUse=3 WtCom= 9.73D-01 WtEn= 2.68D-02
 Coeff-Com:  0.100D+01
 Coeff-En:   0.100D+01
 Coeff:      0.100D+01
 Gap=     0.767 Goal=   None    Shift=    0.000
 GapD=    0.767 DampG=2.000 DampE=1.000 DampFc=2.0000 IDamp=-1.
 RMSDP=2.51D-04 MaxDP=4.91D-03              OVMax= 1.41D-02

 Cycle   2  Pass 0  IDiag  1:
 E= -164.063162225112     Delta-E=       -0.001189229554 Rises=F Damp=F
 DIIS: error= 8.92D-04 at cycle   2 NSaved=   2.
 NSaved= 2 IEnMin= 2 EnMin= -164.063162225112     IErMin= 2 ErrMin= 8.92D-04
 ErrMax= 8.92D-04  0.00D+00 EMaxC= 1.00D-01 BMatC= 4.25D-05 BMatP= 6.03D-04
 IDIUse=3 WtCom= 9.91D-01 WtEn= 8.92D-03
 Coeff-Com: -0.114D+00 0.111D+01
 Coeff-En:   0.000D+00 0.100D+01
 Coeff:     -0.113D+00 0.111D+01
 Gap=     0.409 Goal=   None    Shift=    0.000
 RMSDP=8.54D-05 MaxDP=1.08D-03 DE=-1.19D-03 OVMax= 6.46D-03

 Cycle   3  Pass 0  IDiag  1:
 E= -164.063267866143     Delta-E=       -0.000105641032 Rises=F Damp=F
 DIIS: error= 4.41D-04 at cycle   3 NSaved=   3.
 NSaved= 3 IEnMin= 3 EnMin= -164.063267866143     IErMin= 3 ErrMin= 4.41D-04
 ErrMax= 4.41D-04  0.00D+00 EMaxC= 1.00D-01 BMatC= 2.01D-05 BMatP= 4.25D-05
 IDIUse=3 WtCom= 9.96D-01 WtEn= 4.41D-03
 Coeff-Com: -0.102D+00 0.466D+00 0.636D+00
 Coeff-En:   0.000D+00 0.000D+00 0.100D+01
 Coeff:     -0.102D+00 0.464D+00 0.637D+00
 Gap=     0.409 Goal=   None    Shift=    0.000
 RMSDP=3.01D-05 MaxDP=8.36D-04 DE=-1.06D-04 OVMax= 2.23D-03

 Cycle   4  Pass 0  IDiag  1:
 E= -164.063289098408     Delta-E=       -0.000021232265 Rises=F Damp=F
 DIIS: error= 1.96D-04 at cycle   4 NSaved=   4.
 NSaved= 4 IEnMin= 4 EnMin= -164.063289098408     IErMin= 4 ErrMin= 1.96D-04
 ErrMax= 1.96D-04  0.00D+00 EMaxC= 1.00D-01 BMatC= 1.80D-06 BMatP= 2.01D-05
 IDIUse=3 WtCom= 9.98D-01 WtEn= 1.96D-03
 Coeff-Com: -0.578D-02-0.640D-01 0.175D+00 0.895D+00
 Coeff-En:   0.000D+00 0.000D+00 0.000D+00 0.100D+01
 Coeff:     -0.577D-02-0.639D-01 0.175D+00 0.895D+00
 Gap=     0.409 Goal=   None    Shift=    0.000
 RMSDP=1.78D-05 MaxDP=3.65D-04 DE=-2.12D-05 OVMax= 1.49D-03

 Cycle   5  Pass 0  IDiag  1:
 E= -164.063293054059     Delta-E=       -0.000003955651 Rises=F Damp=F
 DIIS: error= 7.48D-05 at cycle   5 NSaved=   5.
 NSaved= 5 IEnMin= 5 EnMin= -164.063293054059     IErMin= 5 ErrMin= 7.48D-05
 ErrMax= 7.48D-05  0.00D+00 EMaxC= 1.00D-01 BMatC= 1.32D-07 BMatP= 1.80D-06
 IDIUse=1 WtCom= 1.00D+00 WtEn= 0.00D+00
 Coeff-Com:  0.975D-02-0.593D-01-0.552D-01 0.114D+00 0.991D+00
 Coeff:      0.975D-02-0.593D-01-0.552D-01 0.114D+00 0.991D+00
 Gap=     0.409 Goal=   None    Shift=    0.000
 RMSDP=7.65D-06 MaxDP=1.36D-04 DE=-3.96D-06 OVMax= 6.96D-04

 Initial convergence to 1.0D-05 achieved.  Increase integral accuracy.
 Cycle   6  Pass 1  IDiag  1:
 E= -164.063319818113     Delta-E=       -0.000026764055 Rises=F Damp=F
 DIIS: error= 2.69D-05 at cycle   1 NSaved=   1.
 NSaved= 1 IEnMin= 1 EnMin= -164.063319818113     IErMin= 1 ErrMin= 2.69D-05
 ErrMax= 2.69D-05  0.00D+00 EMaxC= 1.00D-01 BMatC= 1.64D-07 BMatP= 1.64D-07
 IDIUse=1 WtCom= 1.00D+00 WtEn= 0.00D+00
 Coeff-Com:  0.100D+01
 Coeff:      0.100D+01
 Gap=     0.409 Goal=   None    Shift=    0.000
 RMSDP=7.65D-06 MaxDP=1.36D-04 DE=-2.68D-05 OVMax= 1.73D-04

 Cycle   7  Pass 1  IDiag  1:
 E= -164.063319993920     Delta-E=       -0.000000175807 Rises=F Damp=F
 DIIS: error= 8.47D-06 at cycle   2 NSaved=   2.
 NSaved= 2 IEnMin= 2 EnMin= -164.063319993920     IErMin= 2 ErrMin= 8.47D-06
 ErrMax= 8.47D-06  0.00D+00 EMaxC= 1.00D-01 BMatC= 5.74D-09 BMatP= 1.64D-07
 IDIUse=1 WtCom= 1.00D+00 WtEn= 0.00D+00
 Coeff-Com: -0.295D-01 0.103D+01
 Coeff:     -0.295D-01 0.103D+01
 Gap=     0.409 Goal=   None    Shift=    0.000
 RMSDP=1.06D-06 MaxDP=1.93D-05 DE=-1.76D-07 OVMax= 8.23D-05

 Cycle   8  Pass 1  IDiag  1:
 E= -164.063320006836     Delta-E=       -0.000000012916 Rises=F Damp=F
 DIIS: error= 4.39D-06 at cycle   3 NSaved=   3.
 NSaved= 3 IEnMin= 3 EnMin= -164.063320006836     IErMin= 3 ErrMin= 4.39D-06
 ErrMax= 4.39D-06  0.00D+00 EMaxC= 1.00D-01 BMatC= 1.59D-09 BMatP= 5.74D-09
 IDIUse=1 WtCom= 1.00D+00 WtEn= 0.00D+00
 Coeff-Com: -0.358D-01 0.283D+00 0.753D+00
 Coeff:     -0.358D-01 0.283D+00 0.753D+00
 Gap=     0.409 Goal=   None    Shift=    0.000
 RMSDP=3.66D-07 MaxDP=8.32D-06 DE=-1.29D-08 OVMax= 2.96D-05

 Cycle   9  Pass 1  IDiag  1:
 E= -164.063320009302     Delta-E=       -0.000000002465 Rises=F Damp=F
 DIIS: error= 2.05D-06 at cycle   4 NSaved=   4.
 NSaved= 4 IEnMin= 4 EnMin= -164.063320009302     IErMin= 4 ErrMin= 2.05D-06
 ErrMax= 2.05D-06  0.00D+00 EMaxC= 1.00D-01 BMatC= 3.14D-10 BMatP= 1.59D-09
 IDIUse=1 WtCom= 1.00D+00 WtEn= 0.00D+00
 Coeff-Com: -0.723D-02-0.592D-01 0.238D+00 0.828D+00
 Coeff:     -0.723D-02-0.592D-01 0.238D+00 0.828D+00
 Gap=     0.409 Goal=   None    Shift=    0.000
 RMSDP=2.27D-07 MaxDP=3.76D-06 DE=-2.47D-09 OVMax= 2.20D-05

 Cycle  10  Pass 1  IDiag  1:
 E= -164.063320010050     Delta-E=       -0.000000000748 Rises=F Damp=F
 DIIS: error= 1.27D-06 at cycle   5 NSaved=   5.
 NSaved= 5 IEnMin= 5 EnMin= -164.063320010050     IErMin= 5 ErrMin= 1.27D-06
 ErrMax= 1.27D-06  0.00D+00 EMaxC= 1.00D-01 BMatC= 4.74D-11 BMatP= 3.14D-10
 IDIUse=1 WtCom= 1.00D+00 WtEn= 0.00D+00
 Coeff-Com:  0.474D-02-0.629D-01-0.867D-01 0.208D+00 0.937D+00
 Coeff:      0.474D-02-0.629D-01-0.867D-01 0.208D+00 0.937D+00
 Gap=     0.409 Goal=   None    Shift=    0.000
 RMSDP=1.23D-07 MaxDP=1.75D-06 DE=-7.48D-10 OVMax= 1.26D-05

 Cycle  11  Pass 1  IDiag  1:
 E= -164.063320010208     Delta-E=       -0.000000000158 Rises=F Damp=F
 DIIS: error= 2.92D-07 at cycle   6 NSaved=   6.
 NSaved= 6 IEnMin= 6 EnMin= -164.063320010208     IErMin= 6 ErrMin= 2.92D-07
 ErrMax= 2.92D-07  0.00D+00 EMaxC= 1.00D-01 BMatC= 4.40D-12 BMatP= 4.74D-11
 IDIUse=1 WtCom= 1.00D+00 WtEn= 0.00D+00
 Coeff-Com:  0.168D-02-0.410D-02-0.507D-01-0.609D-01 0.186D+00 0.928D+00
 Coeff:      0.168D-02-0.410D-02-0.507D-01-0.609D-01 0.186D+00 0.928D+00
 Gap=     0.409 Goal=   None    Shift=    0.000
 RMSDP=4.19D-08 MaxDP=5.68D-07 DE=-1.58D-10 OVMax= 4.27D-06

 Cycle  12  Pass 1  IDiag  1:
 E= -164.063320010223     Delta-E=       -0.000000000014 Rises=F Damp=F
 DIIS: error= 1.08D-07 at cycle   7 NSaved=   7.
 NSaved= 7 IEnMin= 7 EnMin= -164.063320010223     IErMin= 7 ErrMin= 1.08D-07
 ErrMax= 1.08D-07  0.00D+00 EMaxC= 1.00D-01 BMatC= 9.49D-13 BMatP= 4.40D-12
 IDIUse=1 WtCom= 1.00D+00 WtEn= 0.00D+00
 Coeff-Com:  0.168D-03 0.501D-02-0.110D-01-0.459D-01-0.255D-01 0.379D+00
 Coeff-Com:  0.699D+00
 Coeff:      0.168D-03 0.501D-02-0.110D-01-0.459D-01-0.255D-01 0.379D+00
 Coeff:      0.699D+00
 Gap=     0.409 Goal=   None    Shift=    0.000
 RMSDP=1.03D-08 MaxDP=2.07D-07 DE=-1.44D-11 OVMax= 9.22D-07

 Cycle  13  Pass 1  IDiag  1:
 E= -164.063320010225     Delta-E=       -0.000000000003 Rises=F Damp=F
 DIIS: error= 3.22D-08 at cycle   8 NSaved=   8.
 NSaved= 8 IEnMin= 8 EnMin= -164.063320010225     IErMin= 8 ErrMin= 3.22D-08
 ErrMax= 3.22D-08  0.00D+00 EMaxC= 1.00D-01 BMatC= 7.09D-14 BMatP= 9.49D-13
 IDIUse=1 WtCom= 1.00D+00 WtEn= 0.00D+00
 Coeff-Com: -0.157D-03 0.239D-02 0.324D-02-0.769D-02-0.352D-01-0.537D-03
 Coeff-Com:  0.200D+00 0.838D+00
 Coeff:     -0.157D-03 0.239D-02 0.324D-02-0.769D-02-0.352D-01-0.537D-03
 Coeff:      0.200D+00 0.838D+00
 Gap=     0.409 Goal=   None    Shift=    0.000
 RMSDP=3.45D-09 MaxDP=4.98D-08 DE=-2.61D-12 OVMax= 2.95D-07

 SCF Done:  E(RwB97XD) =  -164.063320010     A.U. after   13 cycles
            NFock= 13  Conv=0.34D-08     -V/T= 2.0053
 KE= 1.632026993087D+02 PE=-6.101082838490D+02 EE= 1.683690904780D+02
 Leave Link  502 at Thu Mar  9 15:10:17 2017, MaxMem=   563347456 cpu:        70.3
 (Enter /share/apps/g09RelD.01/g09/l701.exe)
 Compute integral first derivatives.
 ... and contract with generalized density number  0.
 R6Disp: Adding Grimme-D2 dispersion energy 1st derivatives to the gradient.
 Leave Link  701 at Thu Mar  9 15:10:18 2017, MaxMem=   563347456 cpu:         0.9
 (Enter /share/apps/g09RelD.01/g09/l702.exe)
 L702 exits ... SP integral derivatives will be done elsewhere.
 Leave Link  702 at Thu Mar  9 15:10:18 2017, MaxMem=   563347456 cpu:         0.1
 (Enter /share/apps/g09RelD.01/g09/l703.exe)
 Compute integral first derivatives, UseDBF=F ICtDFT=           0.
 Integral derivatives from FoFJK, PRISM(SPDF).
 Calling FoFJK, ICntrl=      2127 FMM=F ISym2X=1 I1Cent= 0 IOpClX= 0 NMat=1 NMatS=1 NMatT=0.
 FoFJK:  IHMeth= 1 ICntrl=    2127 DoSepK=T KAlg= 0 I1Cent=   0 FoldK=F
 IRaf=         1 NMat=   1 IRICut=       1 DoRegI=T DoRafI=F ISym2E= 1.
 FoFCou: FMM=F IPFlag=           0 FMFlag=      100000 FMFlg1=         800
         NFxFlg=           0 DoJE=F BraDBF=F KetDBF=F FulRan=T
         wScrn=  0.000000 ICntrl=    2527 IOpCl=  0 I1Cent=           0 NGrid=           0
         NMat0=    1 NMatS0=      1 NMatT0=    0 NMatD0=    1 NMtDS0=    0 NMtDT0=    0
 Petite list used in FoFCou.
 Leave Link  703 at Thu Mar  9 15:10:23 2017, MaxMem=   563347456 cpu:        18.7
 (Enter /share/apps/g09RelD.01/g09/l716.exe)
 Dipole        = 5.84037957D-02 6.77706919D-02 2.22044605D-16
 ***** Axes restored to original set *****
 -------------------------------------------------------------------
 Center     Atomic                   Forces (Hartrees/Bohr)
 Number     Number              X              Y              Z
 -------------------------------------------------------------------
      1        5          -0.000378456    0.007364714    0.000000000
      2        7          -0.008978710   -0.007185444    0.000000000
      3        7           0.010442514    0.004013090    0.000000000
      4        5          -0.000370809   -0.009761176    0.000000000
      5        1          -0.000315048    0.000537353   -0.000111826
      6        1          -0.000315048    0.000537353    0.000111826
      7        1          -0.000452642    0.000085101    0.000072367
      8        1          -0.000452642    0.000085101   -0.000072367
      9        1          -0.000960822   -0.000291873   -0.000422105
     10        1          -0.000960822   -0.000291873    0.000422105
     11        1           0.001371242    0.002453826    0.000073971
     12        1           0.001371242    0.002453826   -0.000073971
 -------------------------------------------------------------------
 Cartesian Forces:  Max     0.010442514 RMS     0.003442472
 Leave Link  716 at Thu Mar  9 15:10:23 2017, MaxMem=   563347456 cpu:         0.1
 (Enter /share/apps/g09RelD.01/g09/l103.exe)

 GradGradGradGradGradGradGradGradGradGradGradGradGradGradGradGradGradGrad
 Berny optimization.
 FormGI is forming the generalized inverse of G from B-inverse, IUseBI=4.
 Internal  Forces:  Max     0.012082786 RMS     0.002026938
 Search for a local minimum.
 Step number   1 out of a maximum of   82 on scan point     2 out of     2
 All quantities printed in internal units (Hartrees-Bohrs-Radians)
 RMS Force = .96466D-03 SwitMx=.10000D-02 MixMth= 1
 Mixed Optimization -- RFO/linear search
 Second derivative matrix not updated -- first step.
 ITU=  0
     Eigenvalues ---    0.00483   0.02545   0.03095   0.03493   0.04243
     Eigenvalues ---    0.04448   0.04663   0.04729   0.06529   0.06795
     Eigenvalues ---    0.07013   0.07230   0.07553   0.07611   0.07692
     Eigenvalues ---    0.08336   0.08933   0.21670   0.24884   0.24884
     Eigenvalues ---    0.24889   0.24889   0.32418   0.34368   0.46335
     Eigenvalues ---    0.46335   0.46337   0.463371000.000001000.00000
     Eigenvalues --- 1000.000001000.000001000.000001000.000001000.00000
     Eigenvalues --- 1000.000001000.000001000.000001000.000001000.00000
     Eigenvalues --- 1000.000001000.000001000.000001000.000001000.00000
     Eigenvalues --- 1000.000001000.000001000.000001000.000001000.00000
     Eigenvalues --- 1000.000001000.000001000.000001000.000001000.00000
     Eigenvalues --- 1000.000001000.000001000.000001000.000001000.00000
     Eigenvalues --- 1000.000001000.000001000.000001000.000001000.00000
     Eigenvalues --- 1000.000001000.000001000.000001000.000001000.00000
     Eigenvalues --- 1000.000001000.00000
 RFO step:  Lambda=-4.97586555D-04 EMin= 4.82519058D-03
 Linear search not attempted -- first point.
 Iteration  1 RMS(Cart)=  0.00912488 RMS(Int)=  0.00018879
 Iteration  2 RMS(Cart)=  0.00013124 RMS(Int)=  0.00013499
 Iteration  3 RMS(Cart)=  0.00000001 RMS(Int)=  0.00013499
 Iteration  1 RMS(Cart)=  0.00000417 RMS(Int)=  0.00000178
 Iteration  2 RMS(Cart)=  0.00000114 RMS(Int)=  0.00000195
 Iteration  3 RMS(Cart)=  0.00000031 RMS(Int)=  0.00000205
 ITry= 1 IFail=0 DXMaxC= 3.69D-02 DCOld= 1.00D+10 DXMaxT= 3.00D-01 DXLimC= 3.00D+00 Rises=F
 ClnCor:  largest displacement from symmetrization is 5.19D-10 for atom    12.
 Variable       Old X    -DE/DX   Delta X   Delta X   Delta X     New X
                                 (Linear)    (Quad)   (Total)
    R1        4.16297  -0.01208   0.00000   0.00000   0.00000   4.16297
    R2        2.79808  -0.00493   0.00000  -0.01371  -0.01373   2.78434
    R3        2.26201  -0.00071   0.00000  -0.00285  -0.00285   2.25916
    R4        2.26201  -0.00071   0.00000  -0.00285  -0.00285   2.25916
    R5        2.80420  -0.00469   0.00000  -0.01425  -0.01423   2.78997
    R6        1.90452  -0.00020   0.00000  -0.00043  -0.00043   1.90409
    R7        1.90452  -0.00020   0.00000  -0.00043  -0.00043   1.90409
    R8        3.97400  -0.00911   0.00000   0.00000   0.00000   3.97400
[...]
 ! A20   A(2,4,7)              117.468          -DE/DX =    0.0                 !
 ! A21   A(2,4,8)              117.468          -DE/DX =    0.0                 !
 ! A22   A(3,4,7)               97.4861         -DE/DX =    0.0002              !
 ! A23   A(3,4,8)               97.4861         -DE/DX =    0.0002              !
 ! A24   A(7,4,8)              119.7613         -DE/DX =    0.0                 !
 ! D1    D(3,1,2,4)              0.0            -DE/DX =    0.0                 !
 ! D2    D(3,1,2,9)           -118.6393         -DE/DX =    0.0                 !
 ! D3    D(3,1,2,10)           118.6393         -DE/DX =    0.0                 !
 ! D4    D(11,1,2,4)           118.7568         -DE/DX =    0.0                 !
 ! D5    D(11,1,2,9)             0.1175         -DE/DX =    0.0                 !
 ! D6    D(11,1,2,10)         -122.6039         -DE/DX =    0.0001              !
 ! D7    D(12,1,2,4)          -118.7568         -DE/DX =    0.0                 !
 ! D8    D(12,1,2,9)           122.6039         -DE/DX =   -0.0001              !
 ! D9    D(12,1,2,10)           -0.1175         -DE/DX =    0.0                 !
 ! D10   D(2,1,3,4)              0.0            -DE/DX =    0.0                 !
 ! D11   D(2,1,3,5)           -108.0203         -DE/DX =    0.0001              !
 ! D12   D(2,1,3,6)            108.0203         -DE/DX =   -0.0001              !
 ! D13   D(11,1,3,4)          -100.3214         -DE/DX =   -0.0001              !
 ! D14   D(11,1,3,5)           151.6583         -DE/DX =    0.0                 !
 ! D15   D(11,1,3,6)             7.6989         -DE/DX =   -0.0001              !
 ! D16   D(12,1,3,4)           100.3214         -DE/DX =    0.0001              !
 ! D17   D(12,1,3,5)            -7.6989         -DE/DX =    0.0001              !
 ! D18   D(12,1,3,6)          -151.6583         -DE/DX =    0.0                 !
 ! D19   D(1,2,4,3)              0.0            -DE/DX =    0.0                 !
 ! D20   D(1,2,4,7)            102.869          -DE/DX =    0.0                 !
 ! D21   D(1,2,4,8)           -102.869          -DE/DX =    0.0                 !
 ! D22   D(9,2,4,3)            107.409          -DE/DX =    0.0                 !
 ! D23   D(9,2,4,7)           -149.7219         -DE/DX =    0.0                 !
 ! D24   D(9,2,4,8)              4.54           -DE/DX =    0.0                 !
 ! D25   D(10,2,4,3)          -107.409          -DE/DX =    0.0                 !
 ! D26   D(10,2,4,7)            -4.54           -DE/DX =    0.0                 !
 ! D27   D(10,2,4,8)           149.7219         -DE/DX =    0.0                 !
 ! D28   D(1,3,4,2)              0.0            -DE/DX =    0.0                 !
 ! D29   D(1,3,4,7)           -119.2592         -DE/DX =    0.0                 !
 ! D30   D(1,3,4,8)            119.2592         -DE/DX =    0.0                 !
 ! D31   D(5,3,4,2)            119.5055         -DE/DX =    0.0                 !
 ! D32   D(5,3,4,7)              0.2464         -DE/DX =    0.0                 !
 ! D33   D(5,3,4,8)           -121.2353         -DE/DX =   -0.0001              !
 ! D34   D(6,3,4,2)           -119.5055         -DE/DX =    0.0                 !
 ! D35   D(6,3,4,7)            121.2353         -DE/DX =    0.0001              !
 ! D36   D(6,3,4,8)             -0.2464         -DE/DX =    0.0                 !
 --------------------------------------------------------------------------------
 Lowest energy point so far.  Saving SCF results.
 GradGradGradGradGradGradGradGradGradGradGradGradGradGradGradGradGradGrad

 Summary of Optimized Potential Surface Scan
                           1         2
     Eigenvalues --  -164.06566-164.06379
           R1           2.10295   2.20295
           R2           1.48161   1.46491
           R3           1.19702   1.19505
           R4           1.19702   1.19505
           R5           1.48183   1.46859
           R6           1.00785   1.00688
           R7           1.00785   1.00688
           R8           2.10295   2.10295
           R9           1.00783   1.00756
           R10          1.00783   1.00756
           R11          1.19695   1.19795
           R12          1.19695   1.19795
           A1          95.20306  94.04401
           A2          99.01394  97.18382
           A3          99.01394  97.18382
           A4         117.32197 117.85974
           A5         117.32197 117.85974
           A6         119.95761 120.86799
           A7          84.79775  82.04213
           A8         109.72458 109.02774
           A9         109.72458 109.02774
           A10        118.63534 119.59584
           A11        118.63534 119.59584
           A12        111.48829 112.13594
           A13         84.80295  85.77034
           A14        118.62402 119.35728
           A15        118.62402 119.35728
           A16        109.72462 107.76121
           A17        109.72462 107.76121
           A18        111.50458 111.95665
           A19         95.19624  98.14353
           A20        117.26729 117.46799
           A21        117.26729 117.46799
           A22         99.00034  97.48606
           A23         99.00034  97.48606
           A24        120.08000 119.76129
           D1           0.00000   0.00000
           D2        -118.59184-118.63927
           D3         118.59184 118.63927
           D4         118.75712 118.75680
           D5           0.16528   0.11752
           D6        -122.65105-122.60393
           D7        -118.75712-118.75680
           D8         122.65105 122.60393
           D9          -0.16528  -0.11752
           D10          0.00000   0.00000
           D11       -109.66005-108.02030
           D12        109.66005 108.02030
           D13       -102.95124-100.32144
           D14        147.38871 151.65826
           D15          6.70881   7.69886
           D16        102.95124 100.32144
           D17         -6.70881  -7.69886
           D18       -147.38871-151.65826
           D19          0.00000   0.00000
           D20        102.92033 102.86905
           D21       -102.92033-102.86905
           D22        109.65828 107.40904
           D23       -147.42139-149.72191
           D24          6.73794   4.53999
           D25       -109.65828-107.40904
           D26         -6.73794  -4.53999
           D27        147.42139 149.72191
           D28          0.00000   0.00000
           D29       -118.69662-119.25916
           D30        118.69662 119.25916
           D31        118.58163 119.50552
           D32         -0.11498   0.24637
           D33       -122.72175-121.23532
           D34       -118.58163-119.50552
           D35        122.72175 121.23532
           D36          0.11498  -0.24637
 Largest change from initial coordinates is atom    2       0.006 Angstoms.
 Leave Link  103 at Thu Mar  9 15:11:54 2017, MaxMem=   563347456 cpu:         0.1
 (Enter /share/apps/g09RelD.01/g09/l202.exe)
                          Input orientation:                          
 ---------------------------------------------------------------------
 Center     Atomic      Atomic             Coordinates (Angstroms)
 Number     Number       Type             X           Y           Z
 ---------------------------------------------------------------------
      1          5           0       -0.035741   -1.264020    0.000000
      2          7           0        1.292388    0.493551    0.000000
      3          7           0       -1.263861   -0.465466    0.000000
      4          5           0        0.009411    1.208207    0.000000
      5          1           0       -1.826066   -0.423951    0.835092
      6          1           0       -1.826066   -0.423951   -0.835092
      7          1           0       -0.358110    1.683910    1.036207
      8          1           0       -0.358110    1.683910   -1.036207
      9          1           0        1.854283    0.480402   -0.835407
     10          1           0        1.854283    0.480402    0.835407
     11          1           0        0.329255   -1.727150   -1.039443
     12          1           0        0.329255   -1.727150    1.039443
 ---------------------------------------------------------------------
                    Distance matrix (angstroms):
                    1          2          3          4          5
     1  B    0.000000
     2  N    2.202949   0.000000
     3  N    1.464912   2.730224   0.000000
     4  B    2.472639   1.468592   2.102951   0.000000
     5  H    2.146709   3.356180   1.007560   2.594280   0.000000
     6  H    2.146709   3.356180   1.007560   2.594280   1.670183
     7  H    3.141328   2.283598   2.552240   1.197952   2.576513
     8  H    3.141328   2.283598   2.552240   1.197952   3.178007
     9  H    2.704276   1.006879   3.363836   2.152013   4.141665
    10  H    2.704276   1.006879   3.363836   2.152013   3.789832
    11  H    1.195054   2.634308   2.282609   3.130345   3.139685
    12  H    1.195054   2.634308   2.282609   3.130345   2.526954
                    6          7          8          9         10
     6  H    0.000000
     7  H    3.178007   0.000000
     8  H    2.576513   2.072414   0.000000
     9  H    3.789832   3.137842   2.526545   0.000000
    10  H    4.141665   2.526545   3.137842   1.670815   0.000000
    11  H    2.526954   4.051681   3.479628   2.690841   3.273234
    12  H    3.139685   3.479628   4.051681   3.273234   2.690841
                   11         12
    11  H    0.000000
    12  H    2.078887   0.000000
 Stoichiometry    B2H8N2
 Framework group  CS[SG(B2N2),X(H8)]
 Deg. of freedom    17
 Full point group                 CS      NOp   2
 RotChk:  IX=3 Diff= 3.24D-16
 Largest Abelian subgroup         CS      NOp   2
 Largest concise Abelian subgroup CS      NOp   2
                         Standard orientation:                         
 ---------------------------------------------------------------------
 Center     Atomic      Atomic             Coordinates (Angstroms)
 Number     Number       Type             X           Y           Z
 ---------------------------------------------------------------------
      1          5           0        0.030186    1.262475    0.000000
      2          7           0       -1.287280   -0.503104    0.000000
      3          7           0        1.263117    0.471369    0.000000
      4          5           0        0.000000   -1.209981    0.000000
      5          1           0        1.825563    0.433258    0.835092
      6          1           0        1.825563    0.433258   -0.835092
      7          1           0        0.370393   -1.683450    1.036207
      8          1           0        0.370393   -1.683450   -1.036207
      9          1           0       -1.849244   -0.493357   -0.835407
     10          1           0       -1.849244   -0.493357    0.835407
     11          1           0       -0.337607    1.723386   -1.039443
     12          1           0       -0.337607    1.723386    1.039443
 ---------------------------------------------------------------------
 Rotational constants (GHZ):     11.4074252      6.1207937      4.4898116
 Leave Link  202 at Thu Mar  9 15:11:54 2017, MaxMem=   563347456 cpu:         0.0
 (Enter /share/apps/g09RelD.01/g09/l601.exe)
 Copying SCF densities to generalized density rwf, IOpCl= 0 IROHF=0.

 **********************************************************************

            Population analysis using the SCF density.

 **********************************************************************

 Orbital symmetries:
       Occupied  (A') (A') (A') (A') (A') (A') (A') (A") (A') (A")
                 (A') (A') (A') (A") (A") (A')
       Virtual   (A') (A') (A') (A") (A') (A") (A') (A') (A") (A')
                 (A") (A') (A") (A') (A') (A") (A') (A') (A') (A")
                 (A") (A') (A') (A') (A') (A") (A') (A") (A") (A')
                 (A') (A") (A') (A') (A') (A") (A") (A') (A') (A')
                 (A") (A") (A') (A') (A") (A") (A') (A') (A') (A")
                 (A") (A') (A") (A") (A') (A') (A") (A') (A") (A')
                 (A') (A') (A") (A") (A") (A') (A') (A') (A") (A')
                 (A') (A') (A') (A') (A") (A') (A") (A") (A") (A')
                 (A') (A") (A') (A") (A') (A') (A') (A") (A') (A')
                 (A") (A') (A") (A") (A') (A') (A') (A') (A") (A")
                 (A') (A') (A') (A')
 The electronic state is 1-A'.
 Alpha  occ. eigenvalues --  -14.42681 -14.41537  -6.85022  -6.84218  -0.97556
 Alpha  occ. eigenvalues --   -0.95075  -0.62565  -0.60139  -0.59610  -0.58092
 Alpha  occ. eigenvalues --   -0.47848  -0.47155  -0.42983  -0.40311  -0.39279
 Alpha  occ. eigenvalues --   -0.32426
 Alpha virt. eigenvalues --    0.08495   0.10957   0.14649   0.15228   0.17687
 Alpha virt. eigenvalues --    0.19349   0.20479   0.20979   0.23701   0.24713
 Alpha virt. eigenvalues --    0.26678   0.27486   0.33622   0.34861   0.39230
 Alpha virt. eigenvalues --    0.41860   0.45636   0.47572   0.49176   0.52665
 Alpha virt. eigenvalues --    0.53227   0.54268   0.55251   0.59167   0.62985
 Alpha virt. eigenvalues --    0.63465   0.65271   0.69585   0.77433   0.77621
 Alpha virt. eigenvalues --    0.78251   0.79901   0.82199   0.91150   0.92259
 Alpha virt. eigenvalues --    1.04438   1.05306   1.06216   1.10400   1.16277
 Alpha virt. eigenvalues --    1.20122   1.26537   1.26769   1.30296   1.33002
 Alpha virt. eigenvalues --    1.36383   1.38586   1.45001   1.63870   1.64766
 Alpha virt. eigenvalues --    1.70687   1.71357   1.71976   1.76043   1.76659
 Alpha virt. eigenvalues --    1.80331   1.84432   1.84722   1.88713   1.95931
 Alpha virt. eigenvalues --    1.98455   2.01154   2.02430   2.03322   2.09890
 Alpha virt. eigenvalues --    2.10145   2.13742   2.19442   2.20523   2.20855
 Alpha virt. eigenvalues --    2.29184   2.36607   2.51298   2.53014   2.53962
 Alpha virt. eigenvalues --    2.56475   2.56689   2.63595   2.63945   2.68601
 Alpha virt. eigenvalues --    2.71806   2.76093   2.78661   2.79840   2.82018
 Alpha virt. eigenvalues --    2.90666   2.92697   2.97665   3.02614   3.06702
 Alpha virt. eigenvalues --    3.07066   3.17749   3.25991   3.32200   3.99009
 Alpha virt. eigenvalues --    4.07378   4.64613   4.76590   4.85619   4.86490
 Alpha virt. eigenvalues --   14.70550  14.80062  35.71041  35.75108
          Condensed to atoms (all electrons):
               1          2          3          4          5          6
     1  B    3.589173   0.101470   0.374940  -0.020361  -0.031658  -0.031658
     2  N    0.101470   6.426944  -0.055837   0.381464   0.002126   0.002126
     3  N    0.374940  -0.055837   6.420182   0.108493   0.372697   0.372697
     4  B   -0.020361   0.381464   0.108493   3.581581  -0.005007  -0.005007
     5  H   -0.031658   0.002126   0.372697  -0.005007   0.461139  -0.031946
     6  H   -0.031658   0.002126   0.372697  -0.005007  -0.031946   0.461139
     7  H   -0.002052  -0.022906  -0.019391   0.434978  -0.002574   0.001556
     8  H   -0.002052  -0.022906  -0.019391   0.434978   0.001556  -0.002574
     9  H   -0.003194   0.374339   0.002034  -0.033815  -0.000172  -0.000021
    10  H   -0.003194   0.374339   0.002034  -0.033815  -0.000021  -0.000172
    11  H    0.433327  -0.015280  -0.021959  -0.002150   0.005441  -0.009971
    12  H    0.433327  -0.015280  -0.021959  -0.002150  -0.009971   0.005441
               7          8          9         10         11         12
     1  B   -0.002052  -0.002052  -0.003194  -0.003194   0.433327   0.433327
     2  N   -0.022906  -0.022906   0.374339   0.374339  -0.015280  -0.015280
     3  N   -0.019391  -0.019391   0.002034   0.002034  -0.021959  -0.021959
     4  B    0.434978   0.434978  -0.033815  -0.033815  -0.002150  -0.002150
     5  H   -0.002574   0.001556  -0.000172  -0.000021   0.005441  -0.009971
     6  H    0.001556  -0.002574  -0.000021  -0.000172  -0.009971   0.005441
     7  H    0.695930  -0.021410   0.005702  -0.010322  -0.000693   0.001227
     8  H   -0.021410   0.695930  -0.010322   0.005702   0.001227  -0.000693
     9  H    0.005702  -0.010322   0.466301  -0.032904  -0.001875   0.001252
    10  H   -0.010322   0.005702  -0.032904   0.466301   0.001252  -0.001875
    11  H   -0.000693   0.001227  -0.001875   0.001252   0.681947  -0.021448
    12  H    0.001227  -0.000693   0.001252  -0.001875  -0.021448   0.681947
 Mulliken charges:
               1
     1  B    0.161930
     2  N   -0.530600
     3  N   -0.514541
     4  B    0.160808
     5  H    0.238389
     6  H    0.238389
     7  H   -0.060046
     8  H   -0.060046
     9  H    0.232676
    10  H    0.232676
    11  H   -0.049818
    12  H   -0.049818
 Sum of Mulliken charges =   0.00000
 Mulliken charges with hydrogens summed into heavy atoms:
               1
     1  B    0.062294
     2  N   -0.065248
     3  N   -0.037762
     4  B    0.040716
 Electronic spatial extent (au):  <R**2>=            327.6697
 Charge=              0.0000 electrons
 Dipole moment (field-independent basis, Debye):
    X=              0.1890    Y=              0.2282    Z=              0.0000  Tot=              0.2963
 Quadrupole moment (field-independent basis, Debye-Ang):
   XX=            -20.5146   YY=            -33.4231   ZZ=            -26.7151
   XY=              2.8582   XZ=              0.0000   YZ=              0.0000
 Traceless Quadrupole moment (field-independent basis, Debye-Ang):
   XX=              6.3697   YY=             -6.5389   ZZ=              0.1692
   XY=              2.8582   XZ=              0.0000   YZ=              0.0000
 Octapole moment (field-independent basis, Debye-Ang**2):
  XXX=              0.1756  YYY=              0.7575  ZZZ=              0.0000  XYY=             -0.1089
  XXY=             -0.2325  XXZ=              0.0000  XZZ=             -0.0863  YZZ=              0.0794
  YYZ=              0.0000  XYZ=              0.0000
 Hexadecapole moment (field-independent basis, Debye-Ang**3):
 XXXX=           -147.7207 YYYY=           -240.7635 ZZZZ=            -66.2886 XXXY=            -11.0773
 XXXZ=              0.0000 YYYX=            -14.5964 YYYZ=              0.0000 ZZZX=              0.0000
 ZZZY=              0.0000 XXYY=            -71.2666 XXZZ=            -28.3994 YYZZ=            -54.0689
 XXYZ=              0.0000 YYXZ=              0.0000 ZZXY=             -2.0765
 N-N= 1.149941999449D+02 E-N=-6.111968220325D+02  KE= 1.632622473624D+02
 Symmetry A'   KE= 1.548787497053D+02
 Symmetry A"   KE= 8.383497657043D+00
 No NMR shielding tensors so no spin-rotation constants.
 Leave Link  601 at Thu Mar  9 15:11:55 2017, MaxMem=   563347456 cpu:         0.9
 (Enter /share/apps/g09RelD.01/g09/l9999.exe)
 1\1\GINC-COMPUTE-0-5\Scan\RwB97XD\6-311G(d,p)\B2H8N2\BERTA\09-Mar-2017
 \0\\#P RwB97XD/6-311G(d,p)int(grid=ultrafine) opt(modred,loose)\\AB2-m
 ult-scan6_1.gjf\\0,1\B,-0.0357414411,-1.2640203938,0.\N,1.2923880006,0
 .493551348,0.\N,-1.2638608671,-0.4654664241,0.\B,0.0094105634,1.208206
 8171,0.\H,-1.8260662937,-0.4239505883,0.8350915918\H,-1.8260662937,-0.
 4239505883,-0.8350915918\H,-0.3581097831,1.6839098194,1.0362070998\H,-
 0.3581097831,1.6839098194,-1.0362070998\H,1.8542828408,0.4804022838,-0
 .8354074506\H,1.8542828408,0.4804022838,0.8354074506\H,0.3292551082,-1
 .7271496887,-1.0394432636\H,0.3292551082,-1.7271496887,1.0394432636\\V
 ersion=AS64L-G09RevD.01\State=1-A'\HF=-164.065658,-164.063794\RMSD=7.9
 02e-09,3.694e-09\PG=CS [SG(B2N2),X(H8)]\\@


 The juvenile sea squirt wanders through the sea searching
 for a suitable rock or hunk of coral to cling to and make
 its home for life.  For this task it has a rudimentary
 nervous system.  When it finds its spot and takes root, it
 doesn't need its brain any more so it eats it.
 It's rather like getting tenure.

                               -- source unknown
 Job cpu time:       0 days  0 hours  9 minutes  9.8 seconds.
 File lengths (MBytes):  RWF=      9 Int=      0 D2E=      0 Chk=      3 Scr=      1
 Normal termination of Gaussian 09 at Thu Mar  9 15:11:55 2017.
