compute-0-12.local
 Entering Gaussian System, Link 0=g09
 Initial command:
 /share/apps/g09RelE.01/g09/l1.exe "/state/partition1/berta/Gau-12975.inp" -scrdir="/state/partition1/berta/"
 Entering Link 1 = /share/apps/g09RelE.01/g09/l1.exe PID=     12976.
  
 Copyright (c) 1988,1990,1992,1993,1995,1998,2003,2009,2015,
            Gaussian, Inc.  All Rights Reserved.
  
 This is part of the Gaussian(R) 09 program.  It is based on
 the Gaussian(R) 03 system (copyright 2003, Gaussian, Inc.),
 the Gaussian(R) 98 system (copyright 1998, Gaussian, Inc.),
 the Gaussian(R) 94 system (copyright 1995, Gaussian, Inc.),
 the Gaussian 92(TM) system (copyright 1992, Gaussian, Inc.),
 the Gaussian 90(TM) system (copyright 1990, Gaussian, Inc.),
 the Gaussian 88(TM) system (copyright 1988, Gaussian, Inc.),
 the Gaussian 86(TM) system (copyright 1986, Carnegie Mellon
 University), and the Gaussian 82(TM) system (copyright 1983,
 Carnegie Mellon University). Gaussian is a federally registered
 trademark of Gaussian, Inc.
  
 This software contains proprietary and confidential information,
 including trade secrets, belonging to Gaussian, Inc.
  
 This software is provided under written license and may be
 used, copied, transmitted, or stored only in accord with that
 written license.
  
 The following legend is applicable only to US Government
 contracts under FAR:
  
                    RESTRICTED RIGHTS LEGEND
  
 Use, reproduction and disclosure by the US Government is
 subject to restrictions as set forth in subparagraphs (a)
 and (c) of the Commercial Computer Software - Restricted
 Rights clause in FAR 52.227-19.
  
 Gaussian, Inc.
 340 Quinnipiac St., Bldg. 40, Wallingford CT 06492
  
  
 ---------------------------------------------------------------
 Warning -- This program may not be used in any manner that
 competes with the business of Gaussian, Inc. or will provide
 assistance to any competitor of Gaussian, Inc.  The licensee
 of this program is prohibited from giving any competitor of
 Gaussian, Inc. access to this program.  By using this program,
 the user acknowledges that Gaussian, Inc. is engaged in the
 business of creating and licensing software in the field of
 computational chemistry and represents and warrants to the
 licensee that it is not a competitor of Gaussian, Inc. and that
 it will not use this program in any manner prohibited above.
 ---------------------------------------------------------------
  

 Cite this work as:
 Gaussian 09, Revision E.01,
 M. J. Frisch, G. W. Trucks, H. B. Schlegel, G. E. Scuseria, 
 M. A. Robb, J. R. Cheeseman, G. Scalmani, V. Barone, B. Mennucci, 
 G. A. Petersson, H. Nakatsuji, M. Caricato, X. Li, H. P. Hratchian, 
 A. F. Izmaylov, J. Bloino, G. Zheng, J. L. Sonnenberg, M. Hada, 
 M. Ehara, K. Toyota, R. Fukuda, J. Hasegawa, M. Ishida, T. Nakajima, 
 Y. Honda, O. Kitao, H. Nakai, T. Vreven, J. A. Montgomery, Jr., 
 J. E. Peralta, F. Ogliaro, M. Bearpark, J. J. Heyd, E. Brothers, 
 K. N. Kudin, V. N. Staroverov, T. Keith, R. Kobayashi, J. Normand, 
 K. Raghavachari, A. Rendell, J. C. Burant, S. S. Iyengar, J. Tomasi, 
 M. Cossi, N. Rega, J. M. Millam, M. Klene, J. E. Knox, J. B. Cross, 
 V. Bakken, C. Adamo, J. Jaramillo, R. Gomperts, R. E. Stratmann, 
 O. Yazyev, A. J. Austin, R. Cammi, C. Pomelli, J. W. Ochterski, 
 R. L. Martin, K. Morokuma, V. G. Zakrzewski, G. A. Voth, 
 P. Salvador, J. J. Dannenberg, S. Dapprich, A. D. Daniels, 
 O. Farkas, J. B. Foresman, J. V. Ortiz, J. Cioslowski, 
 and D. J. Fox, Gaussian, Inc., Wallingford CT, 2013.
 
 ******************************************
 Gaussian 09:  ES64L-G09RevE.01 30-Nov-2015
                 9-Mar-2017 
 ******************************************
 %chk=AB-AB-NHscan.chk
 %nproc=4
 Will use up to    4 processors via shared memory.
 %mem=8605MB
 --------------------------------------------------------
 #P wb97xd/6-311G** int(grid=ultrafine) opt(modred,loose)
 --------------------------------------------------------
 1/7=-1,14=-1,18=120,19=15,26=4,38=1/1,3;
 2/9=110,12=2,17=6,18=5,40=1/2;
 3/5=4,6=6,7=101,11=2,16=1,25=1,30=1,71=1,74=-58,75=-5/1,2,3;
 4//1;
 5/5=2,38=5/2;
 6/7=2,8=2,9=2,10=2,28=1/1;
 7//1,2,3,16;
 1/7=-1,14=-1,18=20,19=15,26=4/3(2);
 2/9=110/2;
 99//99;
 2/9=110/2;
 3/5=4,6=6,7=101,11=2,16=1,25=1,30=1,71=1,74=-58,75=-5/1,2,3;
 4/5=5,16=3,69=1/1;
 5/5=2,38=5/2;
 7//1,2,3,16;
 1/7=-1,14=-1,18=20,19=15,26=4/3(-5);
 2/9=110/2;
 6/7=2,8=2,9=2,10=2,19=2,28=1/1;
 99/9=1/99;
 Leave Link    1 at Thu Mar  9 14:50:17 2017, MaxMem=  1127874560 cpu:         0.2
 (Enter /share/apps/g09RelE.01/g09/l101.exe)
 ----------
 AB-AB-scan
 ----------
 Symbolic Z-matrix:
 Charge =  0 Multiplicity = 1
 B                     0.        1.11153   0. 
 N                    -1.15497   0.        0. 
 N                     1.15497   0.        0. 
 B                     0.       -1.11153   0. 
 H                     1.74626   0.        0.81977 
 H                     1.74626   0.       -0.81977 
 H                     0.       -1.75697   1.01861 
 H                     0.       -1.75697  -1.01861 
 H                    -1.74626   0.       -0.81977 
 H                    -1.74626   0.        0.81977 
 H                     0.        1.75697  -1.01861 
 H                     0.        1.75697   1.01861 
 
 The following ModRedundant input section has been read:
 B       1       2 F                                                           
 B       3       4 F                                                           
 
 NAtoms=     12 NQM=       12 NQMF=       0 NMMI=      0 NMMIF=      0
                NMic=       0 NMicF=      0.
                    Isotopes and Nuclear Properties:
 (Nuclear quadrupole moments (NQMom) in fm**2, nuclear magnetic moments (NMagM)
  in nuclear magnetons)

  Atom         1           2           3           4           5           6           7           8           9          10
 IAtWgt=          11          14          14          11           1           1           1           1           1           1
 AtmWgt=  11.0093053  14.0030740  14.0030740  11.0093053   1.0078250   1.0078250   1.0078250   1.0078250   1.0078250   1.0078250
 NucSpn=           3           2           2           3           1           1           1           1           1           1
 AtZEff=   0.0000000   0.0000000   0.0000000   0.0000000   0.0000000   0.0000000   0.0000000   0.0000000   0.0000000   0.0000000
 NQMom=    4.0590000   2.0440000   2.0440000   4.0590000   0.0000000   0.0000000   0.0000000   0.0000000   0.0000000   0.0000000
 NMagM=    2.6886370   0.4037610   0.4037610   2.6886370   2.7928460   2.7928460   2.7928460   2.7928460   2.7928460   2.7928460
 AtZNuc=   5.0000000   7.0000000   7.0000000   5.0000000   1.0000000   1.0000000   1.0000000   1.0000000   1.0000000   1.0000000

  Atom        11          12
 IAtWgt=           1           1
 AtmWgt=   1.0078250   1.0078250
 NucSpn=           1           1
 AtZEff=   0.0000000   0.0000000
 NQMom=    0.0000000   0.0000000
 NMagM=    2.7928460   2.7928460
 AtZNuc=   1.0000000   1.0000000
 Leave Link  101 at Thu Mar  9 14:50:18 2017, MaxMem=  1127874560 cpu:         1.5
 (Enter /share/apps/g09RelE.01/g09/l103.exe)

 GradGradGradGradGradGradGradGradGradGradGradGradGradGradGradGradGradGrad
 Berny optimization.
 Initialization pass.
                           ----------------------------
                           !    Initial Parameters    !
                           ! (Angstroms and Degrees)  !
 --------------------------                            --------------------------
 ! Name  Definition              Value          Derivative Info.                !
 --------------------------------------------------------------------------------
 ! R1    R(1,2)                  1.603          Frozen                          !
 ! R2    R(1,3)                  1.603          estimate D2E/DX2                !
 ! R3    R(1,11)                 1.2059         estimate D2E/DX2                !
 ! R4    R(1,12)                 1.2059         estimate D2E/DX2                !
 ! R5    R(2,4)                  1.603          estimate D2E/DX2                !
 ! R6    R(2,9)                  1.0108         estimate D2E/DX2                !
 ! R7    R(2,10)                 1.0108         estimate D2E/DX2                !
 ! R8    R(3,4)                  1.603          Frozen                          !
 ! R9    R(3,5)                  1.0108         estimate D2E/DX2                !
 ! R10   R(3,6)                  1.0108         estimate D2E/DX2                !
 ! R11   R(4,7)                  1.2059         estimate D2E/DX2                !
 ! R12   R(4,8)                  1.2059         estimate D2E/DX2                !
 ! A1    A(2,1,3)               92.1957         estimate D2E/DX2                !
 ! A2    A(2,1,11)             111.7865         estimate D2E/DX2                !
 ! A3    A(2,1,12)             111.7865         estimate D2E/DX2                !
 ! A4    A(3,1,11)             111.7865         estimate D2E/DX2                !
 ! A5    A(3,1,12)             111.7865         estimate D2E/DX2                !
 ! A6    A(11,1,12)            115.2799         estimate D2E/DX2                !
 ! A7    A(1,2,4)               87.8043         estimate D2E/DX2                !
 ! A8    A(1,2,9)              114.9296         estimate D2E/DX2                !
 ! A9    A(1,2,10)             114.9296         estimate D2E/DX2                !
 ! A10   A(4,2,9)              114.9296         estimate D2E/DX2                !
 ! A11   A(4,2,10)             114.9296         estimate D2E/DX2                !
 ! A12   A(9,2,10)             108.3945         estimate D2E/DX2                !
 ! A13   A(1,3,4)               87.8043         estimate D2E/DX2                !
 ! A14   A(1,3,5)              114.9296         estimate D2E/DX2                !
 ! A15   A(1,3,6)              114.9296         estimate D2E/DX2                !
 ! A16   A(4,3,5)              114.9296         estimate D2E/DX2                !
 ! A17   A(4,3,6)              114.9296         estimate D2E/DX2                !
 ! A18   A(5,3,6)              108.3945         estimate D2E/DX2                !
 ! A19   A(2,4,3)               92.1957         estimate D2E/DX2                !
 ! A20   A(2,4,7)              111.7865         estimate D2E/DX2                !
 ! A21   A(2,4,8)              111.7865         estimate D2E/DX2                !
 ! A22   A(3,4,7)              111.7865         estimate D2E/DX2                !
 ! A23   A(3,4,8)              111.7865         estimate D2E/DX2                !
 ! A24   A(7,4,8)              115.2799         estimate D2E/DX2                !
 ! D1    D(3,1,2,4)              0.0            estimate D2E/DX2                !
 ! D2    D(3,1,2,9)           -116.5727         estimate D2E/DX2                !
 ! D3    D(3,1,2,10)           116.5727         estimate D2E/DX2                !
 ! D4    D(11,1,2,4)           114.5393         estimate D2E/DX2                !
 ! D5    D(11,1,2,9)            -2.0334         estimate D2E/DX2                !
 ! D6    D(11,1,2,10)         -128.888          estimate D2E/DX2                !
 ! D7    D(12,1,2,4)          -114.5393         estimate D2E/DX2                !
 ! D8    D(12,1,2,9)           128.888          estimate D2E/DX2                !
 ! D9    D(12,1,2,10)            2.0334         estimate D2E/DX2                !
 ! D10   D(2,1,3,4)              0.0            estimate D2E/DX2                !
 ! D11   D(2,1,3,5)           -116.5727         estimate D2E/DX2                !
 ! D12   D(2,1,3,6)            116.5727         estimate D2E/DX2                !
 ! D13   D(11,1,3,4)          -114.5393         estimate D2E/DX2                !
 ! D14   D(11,1,3,5)           128.888          estimate D2E/DX2                !
 ! D15   D(11,1,3,6)             2.0334         estimate D2E/DX2                !
 ! D16   D(12,1,3,4)           114.5393         estimate D2E/DX2                !
 ! D17   D(12,1,3,5)            -2.0334         estimate D2E/DX2                !
 ! D18   D(12,1,3,6)          -128.888          estimate D2E/DX2                !
 ! D19   D(1,2,4,3)              0.0            estimate D2E/DX2                !
 ! D20   D(1,2,4,7)            114.5393         estimate D2E/DX2                !
 ! D21   D(1,2,4,8)           -114.5393         estimate D2E/DX2                !
 ! D22   D(9,2,4,3)            116.5727         estimate D2E/DX2                !
 ! D23   D(9,2,4,7)           -128.888          estimate D2E/DX2                !
 ! D24   D(9,2,4,8)              2.0334         estimate D2E/DX2                !
 ! D25   D(10,2,4,3)          -116.5727         estimate D2E/DX2                !
 ! D26   D(10,2,4,7)            -2.0334         estimate D2E/DX2                !
 ! D27   D(10,2,4,8)           128.888          estimate D2E/DX2                !
 ! D28   D(1,3,4,2)              0.0            estimate D2E/DX2                !
 ! D29   D(1,3,4,7)           -114.5393         estimate D2E/DX2                !
 ! D30   D(1,3,4,8)            114.5393         estimate D2E/DX2                !
 ! D31   D(5,3,4,2)            116.5727         estimate D2E/DX2                !
 ! D32   D(5,3,4,7)              2.0334         estimate D2E/DX2                !
 ! D33   D(5,3,4,8)           -128.888          estimate D2E/DX2                !
 ! D34   D(6,3,4,2)           -116.5727         estimate D2E/DX2                !
 ! D35   D(6,3,4,7)            128.888          estimate D2E/DX2                !
 ! D36   D(6,3,4,8)             -2.0334         estimate D2E/DX2                !
 --------------------------------------------------------------------------------
 Trust Radius=3.00D-01 FncErr=1.00D-07 GrdErr=1.00D-06
 Number of steps in this run=     82 maximum allowed number of steps=    100.
 GradGradGradGradGradGradGradGradGradGradGradGradGradGradGradGradGradGrad

 Leave Link  103 at Thu Mar  9 14:50:18 2017, MaxMem=  1127874560 cpu:         0.0
 (Enter /share/apps/g09RelE.01/g09/l202.exe)
                          Input orientation:                          
 ---------------------------------------------------------------------
 Center     Atomic      Atomic             Coordinates (Angstroms)
 Number     Number       Type             X           Y           Z
 ---------------------------------------------------------------------
      1          5           0        0.000000    1.111532    0.000000
      2          7           0       -1.154966    0.000000    0.000000
      3          7           0        1.154966    0.000000    0.000000
      4          5           0        0.000000   -1.111532    0.000000
      5          1           0        1.746262    0.000000    0.819769
      6          1           0        1.746262    0.000000   -0.819769
      7          1           0        0.000000   -1.756965    1.018609
      8          1           0        0.000000   -1.756965   -1.018609
      9          1           0       -1.746262    0.000000   -0.819769
     10          1           0       -1.746262    0.000000    0.819769
     11          1           0        0.000000    1.756965   -1.018609
     12          1           0        0.000000    1.756965    1.018609
 ---------------------------------------------------------------------
                    Distance matrix (angstroms):
                    1          2          3          4          5
     1  B    0.000000
     2  N    1.602950   0.000000
     3  N    1.602950   2.309932   0.000000
     4  B    2.223064   1.602950   1.602950   0.000000
     5  H    2.226422   3.014821   1.010768   2.226422   0.000000
     6  H    2.226422   3.014821   1.010768   2.226422   1.639538
     7  H    3.043984   2.336330   2.336330   1.205881   2.485135
     8  H    3.043984   2.336330   2.336330   1.205881   3.084800
     9  H    2.226422   1.010768   3.014821   2.226422   3.858213
    10  H    2.226422   1.010768   3.014821   2.226422   3.492524
    11  H    1.205881   2.336330   2.336330   3.043984   3.084800
    12  H    1.205881   2.336330   2.336330   3.043984   2.485135
                    6          7          8          9         10
     6  H    0.000000
     7  H    3.084800   0.000000
     8  H    2.485135   2.037218   0.000000
     9  H    3.492524   3.084800   2.485135   0.000000
    10  H    3.858213   2.485135   3.084800   1.639538   0.000000
    11  H    2.485135   4.061768   3.513930   2.485135   3.084800
    12  H    3.084800   3.513930   4.061768   3.084800   2.485135
                   11         12
    11  H    0.000000
    12  H    2.037218   0.000000
 Stoichiometry    B2H8N2
 Framework group  D2H[C2(N.N),C2'(B.B),SG(H4),SG'(H4)]
 Deg. of freedom     6
 Full point group                 D2H     NOp   8
 Largest Abelian subgroup         D2H     NOp   8
 Largest concise Abelian subgroup D2H     NOp   8
                         Standard orientation:                         
 ---------------------------------------------------------------------
 Center     Atomic      Atomic             Coordinates (Angstroms)
 Number     Number       Type             X           Y           Z
 ---------------------------------------------------------------------
      1          5           0        0.000000    1.111532    0.000000
      2          7           0       -1.154966    0.000000    0.000000
      3          7           0        1.154966   -0.000000    0.000000
      4          5           0       -0.000000   -1.111532    0.000000
      5          1           0        1.746262   -0.000000    0.819769
      6          1           0        1.746262   -0.000000   -0.819769
      7          1           0        0.000000   -1.756965    1.018609
      8          1           0        0.000000   -1.756965   -1.018609
      9          1           0       -1.746262   -0.000000   -0.819769
     10          1           0       -1.746262    0.000000    0.819769
     11          1           0        0.000000    1.756965   -1.018609
     12          1           0        0.000000    1.756965    1.018609
 ---------------------------------------------------------------------
 Rotational constants (GHZ):     10.8589673      8.9378441      5.6593225
 Leave Link  202 at Thu Mar  9 14:50:18 2017, MaxMem=  1127874560 cpu:         0.0
 (Enter /share/apps/g09RelE.01/g09/l301.exe)
 Standard basis: 6-311G(d,p) (5D, 7F)
 Ernie: Thresh=  0.10000D-02 Tol=  0.10000D-05 Strict=F.
 There are    30 symmetry adapted cartesian basis functions of AG  symmetry.
 There are    10 symmetry adapted cartesian basis functions of B1G symmetry.
 There are    11 symmetry adapted cartesian basis functions of B2G symmetry.
 There are    11 symmetry adapted cartesian basis functions of B3G symmetry.
 There are     4 symmetry adapted cartesian basis functions of AU  symmetry.
 There are    18 symmetry adapted cartesian basis functions of B1U symmetry.
 There are    20 symmetry adapted cartesian basis functions of B2U symmetry.
 There are    20 symmetry adapted cartesian basis functions of B3U symmetry.
 There are    28 symmetry adapted basis functions of AG  symmetry.
 There are    10 symmetry adapted basis functions of B1G symmetry.
 There are    11 symmetry adapted basis functions of B2G symmetry.
 There are    11 symmetry adapted basis functions of B3G symmetry.
 There are     4 symmetry adapted basis functions of AU  symmetry.
 There are    18 symmetry adapted basis functions of B1U symmetry.
 There are    19 symmetry adapted basis functions of B2U symmetry.
 There are    19 symmetry adapted basis functions of B3U symmetry.
   120 basis functions,   192 primitive gaussians,   124 cartesian basis functions
    16 alpha electrons       16 beta electrons
       nuclear repulsion energy       122.7925317445 Hartrees.
 IExCor= 4639 DFT=T Ex+Corr=wB97XD ExCW=0 ScaHFX=  1.000000
 ScaDFX=  1.000000  1.000000  1.000000  1.000000 ScalE2=  1.000000  1.000000
 IRadAn=      5 IRanWt=     -1 IRanGd=            0 ICorTp=0 IEmpDi=121
  HFx wShort=  0.000000 wLong=  0.200000 cFull=  0.222036 cShort=  0.000000 cLong=  0.777964
  DFx wShort=  0.000000 wLong=  0.200000 cFull=  0.000000 cShort=  0.000000 cLong=  1.000000
 NAtoms=   12 NActive=   12 NUniq=    4 SFac= 4.00D+00 NAtFMM=   60 NAOKFM=F Big=F
 Integral buffers will be    131072 words long.
 Raffenetti 2 integral format.
 Two-electron integral symmetry is turned on.
 R6Disp:  Grimme-D2 Dispersion energy=       -0.0053626583 Hartrees.
 Nuclear repulsion after empirical dispersion term =      122.7871690862 Hartrees.
 Leave Link  301 at Thu Mar  9 14:50:18 2017, MaxMem=  1127874560 cpu:         0.4
 (Enter /share/apps/g09RelE.01/g09/l302.exe)
 NPDir=0 NMtPBC=     1 NCelOv=     1 NCel=       1 NClECP=     1 NCelD=      1
         NCelK=      1 NCelE2=     1 NClLst=     1 CellRange=     0.0.
 One-electron integrals computed using PRISM.
 One-electron integral symmetry used in STVInt
 NBasis=   120 RedAO= T EigKep=  4.71D-03  NBF=    28    10    11    11     4    18    19    19
 NBsUse=   120 1.00D-06 EigRej= -1.00D+00 NBFU=    28    10    11    11     4    18    19    19
 Precomputing XC quadrature grid using
 IXCGrd= 4 IRadAn=           5 IRanWt=          -1 IRanGd=           0 AccXCQ= 0.00D+00.
 Generated NRdTot=       0 NPtTot=           0 NUsed=           0 NTot=          32
 NSgBfM=   124   124   124   124   124 MxSgAt=    12 MxSgA2=    12.
 Leave Link  302 at Thu Mar  9 14:50:18 2017, MaxMem=  1127874560 cpu:         1.4
 (Enter /share/apps/g09RelE.01/g09/l303.exe)
 DipDrv:  MaxL=1.
 Leave Link  303 at Thu Mar  9 14:50:18 2017, MaxMem=  1127874560 cpu:         0.2
 (Enter /share/apps/g09RelE.01/g09/l401.exe)
 ExpMin= 9.89D-02 ExpMax= 6.29D+03 ExpMxC= 9.49D+02 IAcc=3 IRadAn=         5 AccDes= 0.00D+00
 Harris functional with IExCor= 4639 and IRadAn=       5 diagonalized for initial guess.
 HarFok:  IExCor= 4639 AccDes= 0.00D+00 IRadAn=         5 IDoV= 1 UseB2=F ITyADJ=14
 ICtDFT=  3500011 ScaDFX=  1.000000  1.000000  1.000000  1.000000
 FoFCou: FMM=F IPFlag=           0 FMFlag=      100000 FMFlg1=           0
         NFxFlg=           0 DoJE=T BraDBF=F KetDBF=T FulRan=T
         wScrn=  0.000000 ICntrl=     500 IOpCl=  0 I1Cent=   200000004 NGrid=           0
         NMat0=    1 NMatS0=      1 NMatT0=    0 NMatD0=    1 NMtDS0=    0 NMtDT0=    0
 Petite list used in FoFCou.
 Harris En= -156.224174158076    
 JPrj=0 DoOrth=F DoCkMO=F.
 Initial guess orbital symmetries:
       Occupied  (AG) (B3U) (AG) (B2U) (AG) (B3U) (AG) (B2U) (B1U)
                 (B2G) (AG) (B1G) (B3U) (B3G) (B1U) (B2U)
       Virtual   (AG) (B3U) (B1U) (B2U) (B3U) (B2G) (AG) (B1G)
                 (B2U) (B3G) (AG) (B1U) (B1U) (B1G) (B2U) (B3U)
                 (B3G) (AG) (AG) (B1U) (B2G) (AG) (B2U) (B3U) (B3G)
                 (B2U) (AG) (B1U) (B3U) (AU) (AG) (B2G) (B1G) (AG)
                 (B2U) (B1U) (B2G) (AG) (B2U) (B3U) (B1U) (B3G)
                 (B1G) (B2U) (AU) (B3U) (B3G) (AG) (B1U) (B3U)
                 (B3G) (B1G) (B2G) (B1U) (AG) (AU) (B1G) (B2G)
                 (AG) (B3U) (B3U) (B3G) (B1U) (B2U) (AG) (B2U)
                 (B2G) (B2U) (B1U) (B1G) (AG) (B3U) (AG) (B2U)
                 (B1U) (B3G) (AG) (B3G) (B3U) (AU) (AG) (B2G) (B1U)
                 (B2U) (B1G) (B3U) (B3G) (AG) (B3U) (AG) (B1U)
                 (B2G) (B2U) (B1U) (B1G) (B2U) (B3U) (AG) (B2G)
                 (B1U) (B2U) (AG) (B3U) (AG)
 The electronic state of the initial guess is 1-AG.
 Leave Link  401 at Thu Mar  9 14:50:19 2017, MaxMem=  1127874560 cpu:         2.3
 (Enter /share/apps/g09RelE.01/g09/l502.exe)
 Closed shell SCF:
 Using DIIS extrapolation, IDIIS=  1040.
 Integral symmetry usage will be decided dynamically.
 Keep R1 ints in memory in symmetry-blocked form, NReq=59523002.
 IVT=       67594 IEndB=       67594 NGot=  1127874560 MDV=  1124426769
 LenX=  1124426769 LenY=  1124410952
 Requested convergence on RMS density matrix=1.00D-08 within 128 cycles.
 Requested convergence on MAX density matrix=1.00D-06.
 Requested convergence on             energy=1.00D-06.
 No special actions if energy rises.
 FoFCou: FMM=F IPFlag=           0 FMFlag=           0 FMFlg1=           0
         NFxFlg=           0 DoJE=F BraDBF=F KetDBF=F FulRan=T
         wScrn=  0.000000 ICntrl=     600 IOpCl=  0 I1Cent=           0 NGrid=           0
         NMat0=    1 NMatS0=   7260 NMatT0=    0 NMatD0=    1 NMtDS0=    0 NMtDT0=    0
 Petite list used in FoFCou.
 Integral accuracy reduced to 1.0D-05 until final iterations.

 Cycle   1  Pass 0  IDiag  1:
 E= -164.044898732898    
 DIIS: error= 1.08D-01 at cycle   1 NSaved=   1.
 NSaved= 1 IEnMin= 1 EnMin= -164.044898732898     IErMin= 1 ErrMin= 1.08D-01
 ErrMax= 1.08D-01  0.00D+00 EMaxC= 1.00D-01 BMatC= 3.59D-01 BMatP= 3.59D-01
 IDIUse=3 WtCom= 0.00D+00 WtEn= 1.00D+00
 Coeff-Com:  0.100D+01
 Coeff-En:   0.100D+01
 Coeff:      0.100D+01
 Gap=     0.456 Goal=   None    Shift=    0.000
 GapD=    0.456 DampG=2.000 DampE=0.250 DampFc=0.5000 IDamp=-1.
 Damping current iteration by 5.00D-01
 RMSDP=2.22D-03 MaxDP=2.90D-02              OVMax= 8.01D-02

 Cycle   2  Pass 0  IDiag  1:
 E= -164.076753521937     Delta-E=       -0.031854789039 Rises=F Damp=T
 DIIS: error= 5.07D-02 at cycle   2 NSaved=   2.
 NSaved= 2 IEnMin= 2 EnMin= -164.076753521937     IErMin= 2 ErrMin= 5.07D-02
 ErrMax= 5.07D-02  0.00D+00 EMaxC= 1.00D-01 BMatC= 7.86D-02 BMatP= 3.59D-01
 IDIUse=3 WtCom= 4.93D-01 WtEn= 5.07D-01
 Coeff-Com: -0.805D+00 0.180D+01
 Coeff-En:   0.000D+00 0.100D+01
 Coeff:     -0.397D+00 0.140D+01
 Gap=     0.468 Goal=   None    Shift=    0.000
 RMSDP=8.73D-04 MaxDP=1.21D-02 DE=-3.19D-02 OVMax= 2.69D-02

 Cycle   3  Pass 0  IDiag  1:
 E= -164.105698073980     Delta-E=       -0.028944552044 Rises=F Damp=F
 DIIS: error= 5.42D-03 at cycle   3 NSaved=   3.
 NSaved= 3 IEnMin= 3 EnMin= -164.105698073980     IErMin= 3 ErrMin= 5.42D-03
 ErrMax= 5.42D-03  0.00D+00 EMaxC= 1.00D-01 BMatC= 1.11D-03 BMatP= 7.86D-02
 IDIUse=3 WtCom= 9.46D-01 WtEn= 5.42D-02
 Coeff-Com: -0.208D+00 0.452D+00 0.756D+00
 Coeff-En:   0.000D+00 0.000D+00 0.100D+01
 Coeff:     -0.197D+00 0.427D+00 0.770D+00
 Gap=     0.470 Goal=   None    Shift=    0.000
 RMSDP=2.00D-04 MaxDP=6.18D-03 DE=-2.89D-02 OVMax= 8.91D-03

 Cycle   4  Pass 0  IDiag  1:
 E= -164.106469645405     Delta-E=       -0.000771571425 Rises=F Damp=F
 DIIS: error= 1.72D-03 at cycle   4 NSaved=   4.
 NSaved= 4 IEnMin= 4 EnMin= -164.106469645405     IErMin= 4 ErrMin= 1.72D-03
 ErrMax= 1.72D-03  0.00D+00 EMaxC= 1.00D-01 BMatC= 9.22D-05 BMatP= 1.11D-03
 IDIUse=3 WtCom= 9.83D-01 WtEn= 1.72D-02
 Coeff-Com: -0.585D-01 0.129D+00 0.302D+00 0.628D+00
 Coeff-En:   0.000D+00 0.000D+00 0.000D+00 0.100D+01
 Coeff:     -0.575D-01 0.127D+00 0.297D+00 0.634D+00
 Gap=     0.468 Goal=   None    Shift=    0.000
 RMSDP=5.46D-05 MaxDP=1.20D-03 DE=-7.72D-04 OVMax= 2.19D-03

 Cycle   5  Pass 0  IDiag  1:
 E= -164.106546618048     Delta-E=       -0.000076972643 Rises=F Damp=F
 DIIS: error= 2.30D-04 at cycle   5 NSaved=   5.
 NSaved= 5 IEnMin= 5 EnMin= -164.106546618048     IErMin= 5 ErrMin= 2.30D-04
 ErrMax= 2.30D-04  0.00D+00 EMaxC= 1.00D-01 BMatC= 2.87D-06 BMatP= 9.22D-05
 IDIUse=3 WtCom= 9.98D-01 WtEn= 2.30D-03
 Coeff-Com:  0.167D-01-0.363D-01-0.453D-01 0.879D-01 0.977D+00
 Coeff-En:   0.000D+00 0.000D+00 0.000D+00 0.000D+00 0.100D+01
 Coeff:      0.166D-01-0.362D-01-0.452D-01 0.877D-01 0.977D+00
 Gap=     0.468 Goal=   None    Shift=    0.000
 RMSDP=2.39D-05 MaxDP=3.97D-04 DE=-7.70D-05 OVMax= 7.09D-04

 Cycle   6  Pass 0  IDiag  1:
 E= -164.106550805556     Delta-E=       -0.000004187507 Rises=F Damp=F
 DIIS: error= 2.79D-05 at cycle   6 NSaved=   6.
 NSaved= 6 IEnMin= 6 EnMin= -164.106550805556     IErMin= 6 ErrMin= 2.79D-05
 ErrMax= 2.79D-05  0.00D+00 EMaxC= 1.00D-01 BMatC= 4.38D-08 BMatP= 2.87D-06
 IDIUse=1 WtCom= 1.00D+00 WtEn= 0.00D+00
 Coeff-Com:  0.160D-02-0.348D-02-0.643D-02-0.234D-01-0.437D-01 0.108D+01
 Coeff:      0.160D-02-0.348D-02-0.643D-02-0.234D-01-0.437D-01 0.108D+01
 Gap=     0.468 Goal=   None    Shift=    0.000
 RMSDP=4.75D-06 MaxDP=6.15D-05 DE=-4.19D-06 OVMax= 1.38D-04

 Initial convergence to 1.0D-05 achieved.  Increase integral accuracy.
 Cycle   7  Pass 1  IDiag  1:
 E= -164.106549893270     Delta-E=        0.000000912286 Rises=F Damp=F
 DIIS: error= 7.57D-05 at cycle   1 NSaved=   1.
 NSaved= 1 IEnMin= 1 EnMin= -164.106549893270     IErMin= 1 ErrMin= 7.57D-05
 ErrMax= 7.57D-05  0.00D+00 EMaxC= 1.00D-01 BMatC= 4.32D-07 BMatP= 4.32D-07
 IDIUse=1 WtCom= 1.00D+00 WtEn= 0.00D+00
 Coeff-Com:  0.100D+01
 Coeff:      0.100D+01
 Gap=     0.468 Goal=   None    Shift=    0.000
 RMSDP=4.75D-06 MaxDP=6.15D-05 DE= 9.12D-07 OVMax= 7.52D-05

 Cycle   8  Pass 1  IDiag  1:
 E= -164.106550083327     Delta-E=       -0.000000190057 Rises=F Damp=F
 DIIS: error= 4.96D-06 at cycle   2 NSaved=   2.
 NSaved= 2 IEnMin= 2 EnMin= -164.106550083327     IErMin= 2 ErrMin= 4.96D-06
 ErrMax= 4.96D-06  0.00D+00 EMaxC= 1.00D-01 BMatC= 2.47D-09 BMatP= 4.32D-07
 IDIUse=1 WtCom= 1.00D+00 WtEn= 0.00D+00
 Coeff-Com: -0.527D-01 0.105D+01
 Coeff:     -0.527D-01 0.105D+01
 Gap=     0.468 Goal=   None    Shift=    0.000
 RMSDP=6.34D-07 MaxDP=6.82D-06 DE=-1.90D-07 OVMax= 1.57D-05

 Cycle   9  Pass 1  IDiag  1:
 E= -164.106550086471     Delta-E=       -0.000000003144 Rises=F Damp=F
 DIIS: error= 1.81D-06 at cycle   3 NSaved=   3.
 NSaved= 3 IEnMin= 3 EnMin= -164.106550086471     IErMin= 3 ErrMin= 1.81D-06
 ErrMax= 1.81D-06  0.00D+00 EMaxC= 1.00D-01 BMatC= 1.67D-10 BMatP= 2.47D-09
 IDIUse=1 WtCom= 1.00D+00 WtEn= 0.00D+00
 Coeff-Com: -0.754D-02 0.940D-01 0.914D+00
 Coeff:     -0.754D-02 0.940D-01 0.914D+00
 Gap=     0.468 Goal=   None    Shift=    0.000
 RMSDP=1.36D-07 MaxDP=2.82D-06 DE=-3.14D-09 OVMax= 5.25D-06

 Cycle  10  Pass 1  IDiag  1:
 E= -164.106550086614     Delta-E=       -0.000000000143 Rises=F Damp=F
 DIIS: error= 1.54D-06 at cycle   4 NSaved=   4.
 NSaved= 4 IEnMin= 4 EnMin= -164.106550086614     IErMin= 4 ErrMin= 1.54D-06
 ErrMax= 1.54D-06  0.00D+00 EMaxC= 1.00D-01 BMatC= 8.43D-11 BMatP= 1.67D-10
 IDIUse=1 WtCom= 1.00D+00 WtEn= 0.00D+00
 Coeff-Com:  0.223D-02-0.769D-01 0.416D+00 0.658D+00
 Coeff:      0.223D-02-0.769D-01 0.416D+00 0.658D+00
 Gap=     0.468 Goal=   None    Shift=    0.000
 RMSDP=5.19D-08 MaxDP=1.26D-06 DE=-1.43D-10 OVMax= 1.87D-06

 Cycle  11  Pass 1  IDiag  1:
 E= -164.106550086688     Delta-E=       -0.000000000074 Rises=F Damp=F
 DIIS: error= 2.02D-07 at cycle   5 NSaved=   5.
 NSaved= 5 IEnMin= 5 EnMin= -164.106550086688     IErMin= 5 ErrMin= 2.02D-07
 ErrMax= 2.02D-07  0.00D+00 EMaxC= 1.00D-01 BMatC= 1.23D-12 BMatP= 8.43D-11
 IDIUse=1 WtCom= 1.00D+00 WtEn= 0.00D+00
 Coeff-Com:  0.836D-03-0.141D-01-0.161D-01 0.711D-01 0.958D+00
 Coeff:      0.836D-03-0.141D-01-0.161D-01 0.711D-01 0.958D+00
 Gap=     0.468 Goal=   None    Shift=    0.000
 RMSDP=1.53D-08 MaxDP=1.65D-07 DE=-7.41D-11 OVMax= 5.20D-07

 Cycle  12  Pass 1  IDiag  1:
 E= -164.106550086690     Delta-E=       -0.000000000001 Rises=F Damp=F
 DIIS: error= 5.36D-08 at cycle   6 NSaved=   6.
 NSaved= 6 IEnMin= 6 EnMin= -164.106550086690     IErMin= 6 ErrMin= 5.36D-08
 ErrMax= 5.36D-08  0.00D+00 EMaxC= 1.00D-01 BMatC= 1.37D-13 BMatP= 1.23D-12
 IDIUse=1 WtCom= 1.00D+00 WtEn= 0.00D+00
 Coeff-Com:  0.734D-04 0.118D-02-0.319D-01-0.232D-01 0.294D+00 0.760D+00
 Coeff:      0.734D-04 0.118D-02-0.319D-01-0.232D-01 0.294D+00 0.760D+00
 Gap=     0.468 Goal=   None    Shift=    0.000
 RMSDP=3.58D-09 MaxDP=8.42D-08 DE=-1.42D-12 OVMax= 1.51D-07

 SCF Done:  E(RwB97XD) =  -164.106550087     A.U. after   12 cycles
            NFock= 12  Conv=0.36D-08     -V/T= 2.0047
 KE= 1.633415099929D+02 PE=-6.265550836037D+02 EE= 1.763198544380D+02
 Leave Link  502 at Thu Mar  9 14:50:24 2017, MaxMem=  1127874560 cpu:        20.6
 (Enter /share/apps/g09RelE.01/g09/l601.exe)
 Copying SCF densities to generalized density rwf, IOpCl= 0 IROHF=0.

 **********************************************************************

            Population analysis using the SCF density.

 **********************************************************************

 Orbital symmetries:
       Occupied  (AG) (B3U) (AG) (B2U) (AG) (B3U) (AG) (B1U) (B2U)
                 (B2G) (AG) (B3U) (B1G) (B3G) (B1U) (B2U)
       Virtual   (AG) (B3U) (B1U) (B2G) (AG) (B3U) (B2U) (B1G)
                 (B3G) (AG) (B2U) (B1U) (B1U) (B2U) (B1G) (B3U)
                 (B3G) (AG) (B2G) (B1U) (AG) (AG) (B2U) (B3U) (B3G)
                 (B2U) (AG) (B1U) (B3U) (AG) (AU) (B2G) (B1G) (AG)
                 (B2U) (B1U) (B2G) (B3U) (B1U) (AG) (B2U) (B3G)
                 (B2U) (B1G) (AU) (B3G) (AG) (B3U) (B1U) (B3U)
                 (B2G) (B3G) (B1U) (B1G) (AG) (B2G) (B1G) (AU)
                 (B3U) (AG) (B1U) (B3U) (B2U) (B3G) (AG) (B2G)
                 (B2U) (B2U) (B1U) (B1G) (AG) (B3U) (B2U) (AG)
                 (B1U) (B3G) (AG) (B3U) (B2G) (AU) (B3G) (AG) (B1U)
                 (B3U) (B1G) (B2U) (B3G) (AG) (B3U) (AG) (B1U)
                 (B2G) (B1U) (B2U) (B1G) (B2U) (B3U) (AG) (B2G)
                 (B1U) (B2U) (AG) (B3U) (AG)
 The electronic state is 1-AG.
 Alpha  occ. eigenvalues --  -14.44880 -14.44879  -6.82461  -6.82457  -1.02070
 Alpha  occ. eigenvalues --   -0.96769  -0.66346  -0.62348  -0.59873  -0.58839
 Alpha  occ. eigenvalues --   -0.47802  -0.46963  -0.46721  -0.38832  -0.37295
 Alpha  occ. eigenvalues --   -0.36499
 Alpha virt. eigenvalues --    0.10338   0.11813   0.13471   0.18817   0.20521
 Alpha virt. eigenvalues --    0.20806   0.21027   0.23371   0.23811   0.24572
 Alpha virt. eigenvalues --    0.24678   0.26395   0.33878   0.41849   0.42078
 Alpha virt. eigenvalues --    0.43737   0.46223   0.46646   0.47622   0.49162
 Alpha virt. eigenvalues --    0.49312   0.52717   0.54895   0.56173   0.60657
 Alpha virt. eigenvalues --    0.64881   0.65174   0.69012   0.72632   0.77816
 Alpha virt. eigenvalues --    0.79628   0.80586   0.80994   0.89428   0.93661
 Alpha virt. eigenvalues --    1.01528   1.19567   1.20173   1.22773   1.23502
 Alpha virt. eigenvalues --    1.24929   1.26188   1.28732   1.29075   1.32840
 Alpha virt. eigenvalues --    1.39414   1.41440   1.42067   1.62396   1.70117
 Alpha virt. eigenvalues --    1.74241   1.74353   1.74810   1.77541   1.83409
 Alpha virt. eigenvalues --    1.83918   1.84507   1.87156   1.91290   1.91928
 Alpha virt. eigenvalues --    2.00273   2.01201   2.02541   2.03844   2.13311
 Alpha virt. eigenvalues --    2.16313   2.19351   2.23335   2.24989   2.31322
 Alpha virt. eigenvalues --    2.35306   2.37202   2.48123   2.49397   2.59194
 Alpha virt. eigenvalues --    2.59806   2.62235   2.70596   2.71691   2.72486
 Alpha virt. eigenvalues --    2.75552   2.80220   2.83488   2.89016   2.89654
 Alpha virt. eigenvalues --    2.90190   2.95788   2.98472   3.00392   3.07228
 Alpha virt. eigenvalues --    3.11354   3.13602   3.30628   3.33063   4.32311
 Alpha virt. eigenvalues --    4.36734   4.50258   4.81306   4.82408   4.83793
 Alpha virt. eigenvalues --   14.59051  14.91997  35.64112  35.72347
          Condensed to atoms (all electrons):
               1          2          3          4          5          6
     1  B    3.673064   0.285005   0.285005  -0.069316  -0.023298  -0.023298
     2  N    0.285005   6.266874  -0.100150   0.285005   0.006844   0.006844
     3  N    0.285005  -0.100150   6.266874   0.285005   0.369948   0.369948
     4  B   -0.069316   0.285005   0.285005   3.673064  -0.023298  -0.023298
     5  H   -0.023298   0.006844   0.369948  -0.023298   0.466391  -0.028210
     6  H   -0.023298   0.006844   0.369948  -0.023298  -0.028210   0.466391
     7  H    0.003592  -0.023962  -0.023962   0.432566  -0.009694   0.004442
     8  H    0.003592  -0.023962  -0.023962   0.432566   0.004442  -0.009694
     9  H   -0.023298   0.369948   0.006844  -0.023298  -0.000805   0.000067
    10  H   -0.023298   0.369948   0.006844  -0.023298   0.000067  -0.000805
    11  H    0.432566  -0.023962  -0.023962   0.003592   0.004442  -0.009694
    12  H    0.432566  -0.023962  -0.023962   0.003592  -0.009694   0.004442
               7          8          9         10         11         12
     1  B    0.003592   0.003592  -0.023298  -0.023298   0.432566   0.432566
     2  N   -0.023962  -0.023962   0.369948   0.369948  -0.023962  -0.023962
     3  N   -0.023962  -0.023962   0.006844   0.006844  -0.023962  -0.023962
     4  B    0.432566   0.432566  -0.023298  -0.023298   0.003592   0.003592
     5  H   -0.009694   0.004442  -0.000805   0.000067   0.004442  -0.009694
     6  H    0.004442  -0.009694   0.000067  -0.000805  -0.009694   0.004442
     7  H    0.707558  -0.016335   0.004442  -0.009694  -0.001384   0.001621
     8  H   -0.016335   0.707558  -0.009694   0.004442   0.001621  -0.001384
     9  H    0.004442  -0.009694   0.466391  -0.028210  -0.009694   0.004442
    10  H   -0.009694   0.004442  -0.028210   0.466391   0.004442  -0.009694
    11  H   -0.001384   0.001621  -0.009694   0.004442   0.707558  -0.016335
    12  H    0.001621  -0.001384   0.004442  -0.009694  -0.016335   0.707558
 Mulliken charges:
               1
     1  B    0.047118
     2  N   -0.394470
     3  N   -0.394470
     4  B    0.047118
     5  H    0.242866
     6  H    0.242866
     7  H   -0.069190
     8  H   -0.069190
     9  H    0.242866
    10  H    0.242866
    11  H   -0.069190
    12  H   -0.069190
 Sum of Mulliken charges =   0.00000
 Mulliken charges with hydrogens summed into heavy atoms:
               1
     1  B   -0.091262
     2  N    0.091262
     3  N    0.091262
     4  B   -0.091262
 Electronic spatial extent (au):  <R**2>=            284.3670
 Charge=              0.0000 electrons
 Dipole moment (field-independent basis, Debye):
    X=             -0.0000    Y=              0.0000    Z=             -0.0000  Tot=              0.0000
 Quadrupole moment (field-independent basis, Debye-Ang):
   XX=            -18.4842   YY=            -36.8791   ZZ=            -27.3326
   XY=             -0.0000   XZ=              0.0000   YZ=              0.0000
 Traceless Quadrupole moment (field-independent basis, Debye-Ang):
   XX=              9.0811   YY=             -9.3138   ZZ=              0.2327
   XY=             -0.0000   XZ=              0.0000   YZ=              0.0000
 Octapole moment (field-independent basis, Debye-Ang**2):
  XXX=             -0.0000  YYY=              0.0000  ZZZ=             -0.0000  XYY=             -0.0000
  XXY=              0.0000  XXZ=             -0.0000  XZZ=             -0.0000  YZZ=             -0.0000
  YYZ=             -0.0000  XYZ=             -0.0000
 Hexadecapole moment (field-independent basis, Debye-Ang**3):
 XXXX=           -118.2968 YYYY=           -228.8076 ZZZZ=            -68.2130 XXXY=              0.0000
 XXXZ=              0.0000 YYYX=              0.0000 YYYZ=              0.0000 ZZZX=              0.0000
 ZZZY=             -0.0000 XXYY=            -60.2085 XXZZ=            -24.7811 YYZZ=            -52.6673
 XXYZ=              0.0000 YYXZ=             -0.0000 ZZXY=             -0.0000
 N-N= 1.227871690862D+02 E-N=-6.265550852568D+02  KE= 1.633415099929D+02
 Symmetry AG   KE= 7.382494082932D+01
 Symmetry B1G  KE= 2.920858910353D+00
 Symmetry B2G  KE= 2.780445140824D+00
 Symmetry B3G  KE= 1.457494201230D+00
 Symmetry AU   KE= 1.151802862604D-19
 Symmetry B1U  KE= 4.180786909720D+00
 Symmetry B2U  KE= 2.671252772722D+01
 Symmetry B3U  KE= 5.146445627419D+01
 No NMR shielding tensors so no spin-rotation constants.
 Leave Link  601 at Thu Mar  9 14:50:25 2017, MaxMem=  1127874560 cpu:         1.0
 (Enter /share/apps/g09RelE.01/g09/l701.exe)
 Compute integral first derivatives.
 ... and contract with generalized density number  0.
 R6Disp: Adding Grimme-D2 dispersion energy 1st derivatives to the gradient.
 Leave Link  701 at Thu Mar  9 14:50:25 2017, MaxMem=  1127874560 cpu:         0.9
 (Enter /share/apps/g09RelE.01/g09/l702.exe)
 L702 exits ... SP integral derivatives will be done elsewhere.
 Leave Link  702 at Thu Mar  9 14:50:25 2017, MaxMem=  1127874560 cpu:         0.2
 (Enter /share/apps/g09RelE.01/g09/l703.exe)
 Compute integral first derivatives, UseDBF=F ICtDFT=           0.
 Integral derivatives from FoFJK, PRISM(SPDF).
 Calling FoFJK, ICntrl=      2127 FMM=F ISym2X=1 I1Cent= 0 IOpClX= 0 NMat=1 NMatS=1 NMatT=0.
 FoFJK:  IHMeth= 1 ICntrl=    2127 DoSepK=T KAlg= 0 I1Cent=   0 FoldK=F
 IRaf=         1 NMat=   1 IRICut=       1 DoRegI=T DoRafI=F ISym2E= 1.
 FoFCou: FMM=F IPFlag=           0 FMFlag=      100000 FMFlg1=         800
         NFxFlg=           0 DoJE=F BraDBF=F KetDBF=F FulRan=T
         wScrn=  0.000000 ICntrl=    2527 IOpCl=  0 I1Cent=           0 NGrid=           0
         NMat0=    1 NMatS0=      1 NMatT0=    0 NMatD0=    1 NMtDS0=    0 NMtDT0=    0
 Petite list used in FoFCou.
 Leave Link  703 at Thu Mar  9 14:50:27 2017, MaxMem=  1127874560 cpu:         7.2
 (Enter /share/apps/g09RelE.01/g09/l716.exe)
 Dipole        =-3.62768188D-15 2.22044605D-15-6.66133815D-16
 ***** Axes restored to original set *****
 -------------------------------------------------------------------
 Center     Atomic                   Forces (Hartrees/Bohr)
 Number     Number              X              Y              Z
 -------------------------------------------------------------------
      1        5           0.000000000   -0.000002489    0.000000000
      2        7           0.000020744    0.000000000    0.000000000
      3        7          -0.000020744    0.000000000   -0.000000000
      4        5           0.000000000    0.000002489    0.000000000
      5        1          -0.000000679   -0.000000000   -0.000029139
      6        1          -0.000000679   -0.000000000    0.000029139
      7        1          -0.000000000    0.000002239   -0.000064029
      8        1          -0.000000000    0.000002239    0.000064029
      9        1           0.000000679    0.000000000    0.000029139
     10        1           0.000000679   -0.000000000   -0.000029139
     11        1          -0.000000000   -0.000002239    0.000064029
     12        1          -0.000000000   -0.000002239   -0.000064029
 -------------------------------------------------------------------
 Cartesian Forces:  Max     0.000064029 RMS     0.000023974
 Leave Link  716 at Thu Mar  9 14:50:27 2017, MaxMem=  1127874560 cpu:         0.2
 (Enter /share/apps/g09RelE.01/g09/l103.exe)

 GradGradGradGradGradGradGradGradGradGradGradGradGradGradGradGradGradGrad
 Berny optimization.
 FormGI is forming the generalized inverse of G from B-inverse, IUseBI=4.
 Internal  Forces:  Max     0.000055284 RMS     0.000016237
 Search for a local minimum.
 Step number   1 out of a maximum of   82
 All quantities printed in internal units (Hartrees-Bohrs-Radians)
 RMS Force = .16373D-04 SwitMx=.10000D-02 MixMth= 2
 Mixed Optimization -- En-DIIS/RFO-DIIS
 Second derivative matrix not updated -- first step.
 ITU=  0
     Eigenvalues ---    0.00230   0.02270   0.02357   0.03335   0.04622
     Eigenvalues ---    0.04622   0.05010   0.05010   0.05545   0.05954
     Eigenvalues ---    0.06044   0.06312   0.06532   0.06532   0.07647
     Eigenvalues ---    0.08025   0.08936   0.21431   0.23045   0.23598
     Eigenvalues ---    0.24241   0.24241   0.24241   0.24241   0.45844
     Eigenvalues ---    0.45844   0.45844   0.458441000.000001000.00000
     Eigenvalues --- 1000.000001000.000001000.000001000.000001000.00000
     Eigenvalues --- 1000.000001000.000001000.000001000.000001000.00000
     Eigenvalues --- 1000.000001000.000001000.000001000.000001000.00000
     Eigenvalues --- 1000.000001000.000001000.000001000.000001000.00000
     Eigenvalues --- 1000.000001000.000001000.000001000.000001000.00000
     Eigenvalues --- 1000.000001000.000001000.000001000.000001000.00000
     Eigenvalues --- 1000.000001000.000001000.000001000.000001000.00000
     Eigenvalues --- 1000.000001000.000001000.000001000.000001000.00000
     Eigenvalues --- 1000.000001000.00000
 RFO step:  Lambda=-1.12900151D-07 EMin= 2.30000000D-03
 Linear search not attempted -- first point.
 Iteration  1 RMS(Cart)=  0.00010635 RMS(Int)=  0.00000001
 Iteration  2 RMS(Cart)=  0.00000001 RMS(Int)=  0.00000000
 Iteration  1 RMS(Cart)=  0.00000000 RMS(Int)=  0.00000000
 ITry= 1 IFail=0 DXMaxC= 3.88D-04 DCOld= 1.00D+10 DXMaxT= 3.00D-01 DXLimC= 3.00D+00 Rises=F
 ClnCor:  largest displacement from symmetrization is 1.57D-05 for atom     1.
 Variable       Old X    -DE/DX   Delta X   Delta X   Delta X     New X
                                 (Linear)    (Quad)   (Total)
    R1        3.02914  -0.00001   0.00000   0.00000  -0.00002   3.02912
    R2        3.02914  -0.00001   0.00000  -0.00004  -0.00002   3.02912
    R3        2.27878  -0.00006   0.00000  -0.00023  -0.00023   2.27856
    R4        2.27878  -0.00006   0.00000  -0.00023  -0.00023   2.27856
    R5        3.02914  -0.00001   0.00000  -0.00004  -0.00002   3.02912
    R6        1.91007  -0.00002   0.00000  -0.00005  -0.00005   1.91002
    R7        1.91007  -0.00002   0.00000  -0.00005  -0.00005   1.91002
    R8        3.02914  -0.00001   0.00000   0.00000  -0.00002   3.02912
    R9        1.91007  -0.00002   0.00000  -0.00005  -0.00005   1.91002
   R10        1.91007  -0.00002   0.00000  -0.00005  -0.00005   1.91002
   R11        2.27878  -0.00006   0.00000  -0.00023  -0.00023   2.27856
   R12        2.27878  -0.00006   0.00000  -0.00023  -0.00023   2.27856
    A1        1.60912  -0.00001   0.00000  -0.00002  -0.00002   1.60910
    A2        1.95104   0.00001   0.00000   0.00010   0.00010   1.95115
    A3        1.95104   0.00001   0.00000   0.00010   0.00010   1.95115
    A4        1.95104   0.00001   0.00000   0.00010   0.00010   1.95115
    A5        1.95104   0.00001   0.00000   0.00010   0.00010   1.95115
    A6        2.01201  -0.00002   0.00000  -0.00032  -0.00032   2.01169
    A7        1.53247   0.00001   0.00000   0.00002   0.00002   1.53249
    A8        2.00590   0.00000   0.00000   0.00004   0.00004   2.00594
    A9        2.00590   0.00000   0.00000   0.00004   0.00004   2.00594
   A10        2.00590   0.00000   0.00000   0.00004   0.00004   2.00594
   A11        2.00590   0.00000   0.00000   0.00004   0.00004   2.00594
   A12        1.89184  -0.00001   0.00000  -0.00014  -0.00014   1.89170
   A13        1.53247   0.00001   0.00000   0.00002   0.00002   1.53249
   A14        2.00590   0.00000   0.00000   0.00004   0.00004   2.00594
   A15        2.00590   0.00000   0.00000   0.00004   0.00004   2.00594
   A16        2.00590   0.00000   0.00000   0.00004   0.00004   2.00594
   A17        2.00590   0.00000   0.00000   0.00004   0.00004   2.00594
   A18        1.89184  -0.00001   0.00000  -0.00014  -0.00014   1.89170
   A19        1.60912  -0.00001   0.00000  -0.00002  -0.00002   1.60910
   A20        1.95104   0.00001   0.00000   0.00010   0.00010   1.95115
   A21        1.95104   0.00001   0.00000   0.00010   0.00010   1.95115
   A22        1.95104   0.00001   0.00000   0.00010   0.00010   1.95115
   A23        1.95104   0.00001   0.00000   0.00010   0.00010   1.95115
   A24        2.01201  -0.00002   0.00000  -0.00032  -0.00032   2.01169
    D1       -0.00000   0.00000   0.00000   0.00000   0.00000   0.00000
    D2       -2.03458  -0.00000   0.00000  -0.00006  -0.00006  -2.03464
    D3        2.03458   0.00000   0.00000   0.00006   0.00006   2.03464
    D4        1.99909   0.00001   0.00000   0.00013   0.00013   1.99922
    D5       -0.03549   0.00000   0.00000   0.00007   0.00007  -0.03542
    D6       -2.24952   0.00001   0.00000   0.00019   0.00019  -2.24933
    D7       -1.99909  -0.00001   0.00000  -0.00013  -0.00013  -1.99922
    D8        2.24952  -0.00001   0.00000  -0.00019  -0.00019   2.24933
    D9        0.03549  -0.00000   0.00000  -0.00007  -0.00007   0.03542
   D10        0.00000  -0.00000   0.00000  -0.00000   0.00000   0.00000
   D11       -2.03458  -0.00000   0.00000  -0.00006  -0.00006  -2.03464
   D12        2.03458   0.00000   0.00000   0.00006   0.00006   2.03464
   D13       -1.99909  -0.00001   0.00000  -0.00013  -0.00013  -1.99922
   D14        2.24952  -0.00001   0.00000  -0.00019  -0.00019   2.24933
   D15        0.03549  -0.00000   0.00000  -0.00007  -0.00007   0.03542
   D16        1.99909   0.00001   0.00000   0.00013   0.00013   1.99922
   D17       -0.03549   0.00000   0.00000   0.00007   0.00007  -0.03542
   D18       -2.24952   0.00001   0.00000   0.00019   0.00019  -2.24933
   D19        0.00000  -0.00000   0.00000  -0.00000   0.00000   0.00000
   D20        1.99909   0.00001   0.00000   0.00013   0.00013   1.99922
   D21       -1.99909  -0.00001   0.00000  -0.00013  -0.00013  -1.99922
   D22        2.03458   0.00000   0.00000   0.00006   0.00006   2.03464
   D23       -2.24952   0.00001   0.00000   0.00019   0.00019  -2.24933
   D24        0.03549  -0.00000   0.00000  -0.00007  -0.00007   0.03542
   D25       -2.03458  -0.00000   0.00000  -0.00006  -0.00006  -2.03464
   D26       -0.03549   0.00000   0.00000   0.00007   0.00007  -0.03542
   D27        2.24952  -0.00001   0.00000  -0.00019  -0.00019   2.24933
   D28       -0.00000   0.00000   0.00000   0.00000   0.00000   0.00000
   D29       -1.99909  -0.00001   0.00000  -0.00013  -0.00013  -1.99922
   D30        1.99909   0.00001   0.00000   0.00013   0.00013   1.99922
   D31        2.03458   0.00000   0.00000   0.00006   0.00006   2.03464
   D32        0.03549  -0.00000   0.00000  -0.00007  -0.00007   0.03542
   D33       -2.24952   0.00001   0.00000   0.00019   0.00019  -2.24933
   D34       -2.03458  -0.00000   0.00000  -0.00006  -0.00006  -2.03464
   D35        2.24952  -0.00001   0.00000  -0.00019  -0.00019   2.24933
   D36       -0.03549   0.00000   0.00000   0.00007   0.00007  -0.03542
         Item               Value     Threshold  Converged?
 Maximum Force            0.000055     0.002500     YES
 RMS     Force            0.000016     0.001667     YES
 Maximum Displacement     0.000388     0.010000     YES
 RMS     Displacement     0.000106     0.006667     YES
 Predicted change in Energy=-5.667951D-08
 Optimization completed.
    -- Stationary point found.
                           ----------------------------
                           !   Optimized Parameters   !
                           ! (Angstroms and Degrees)  !
 --------------------------                            --------------------------
 ! Name  Definition              Value          Derivative Info.                !
 --------------------------------------------------------------------------------
 ! R1    R(1,2)                  1.603          -DE/DX =    0.0                 !
 ! R2    R(1,3)                  1.603          -DE/DX =    0.0                 !
 ! R3    R(1,11)                 1.2059         -DE/DX =   -0.0001              !
 ! R4    R(1,12)                 1.2059         -DE/DX =   -0.0001              !
 ! R5    R(2,4)                  1.603          -DE/DX =    0.0                 !
 ! R6    R(2,9)                  1.0108         -DE/DX =    0.0                 !
 ! R7    R(2,10)                 1.0108         -DE/DX =    0.0                 !
 ! R8    R(3,4)                  1.603          -DE/DX =    0.0                 !
 ! R9    R(3,5)                  1.0108         -DE/DX =    0.0                 !
 ! R10   R(3,6)                  1.0108         -DE/DX =    0.0                 !
 ! R11   R(4,7)                  1.2059         -DE/DX =   -0.0001              !
 ! R12   R(4,8)                  1.2059         -DE/DX =   -0.0001              !
 ! A1    A(2,1,3)               92.1957         -DE/DX =    0.0                 !
 ! A2    A(2,1,11)             111.7865         -DE/DX =    0.0                 !
 ! A3    A(2,1,12)             111.7865         -DE/DX =    0.0                 !
 ! A4    A(3,1,11)             111.7865         -DE/DX =    0.0                 !
 ! A5    A(3,1,12)             111.7865         -DE/DX =    0.0                 !
 ! A6    A(11,1,12)            115.2799         -DE/DX =    0.0                 !
 ! A7    A(1,2,4)               87.8043         -DE/DX =    0.0                 !
 ! A8    A(1,2,9)              114.9296         -DE/DX =    0.0                 !
 ! A9    A(1,2,10)             114.9296         -DE/DX =    0.0                 !
 ! A10   A(4,2,9)              114.9296         -DE/DX =    0.0                 !
 ! A11   A(4,2,10)             114.9296         -DE/DX =    0.0                 !
 ! A12   A(9,2,10)             108.3945         -DE/DX =    0.0                 !
 ! A13   A(1,3,4)               87.8043         -DE/DX =    0.0                 !
 ! A14   A(1,3,5)              114.9296         -DE/DX =    0.0                 !
 ! A15   A(1,3,6)              114.9296         -DE/DX =    0.0                 !
 ! A16   A(4,3,5)              114.9296         -DE/DX =    0.0                 !
 ! A17   A(4,3,6)              114.9296         -DE/DX =    0.0                 !
 ! A18   A(5,3,6)              108.3945         -DE/DX =    0.0                 !
 ! A19   A(2,4,3)               92.1957         -DE/DX =    0.0                 !
 ! A20   A(2,4,7)              111.7865         -DE/DX =    0.0                 !
 ! A21   A(2,4,8)              111.7865         -DE/DX =    0.0                 !
 ! A22   A(3,4,7)              111.7865         -DE/DX =    0.0                 !
 ! A23   A(3,4,8)              111.7865         -DE/DX =    0.0                 !
 ! A24   A(7,4,8)              115.2799         -DE/DX =    0.0                 !
 ! D1    D(3,1,2,4)              0.0            -DE/DX =    0.0                 !
 ! D2    D(3,1,2,9)           -116.5727         -DE/DX =    0.0                 !
 ! D3    D(3,1,2,10)           116.5727         -DE/DX =    0.0                 !
 ! D4    D(11,1,2,4)           114.5393         -DE/DX =    0.0                 !
 ! D5    D(11,1,2,9)            -2.0334         -DE/DX =    0.0                 !
 ! D6    D(11,1,2,10)         -128.888          -DE/DX =    0.0                 !
 ! D7    D(12,1,2,4)          -114.5393         -DE/DX =    0.0                 !
 ! D8    D(12,1,2,9)           128.888          -DE/DX =    0.0                 !
 ! D9    D(12,1,2,10)            2.0334         -DE/DX =    0.0                 !
 ! D10   D(2,1,3,4)              0.0            -DE/DX =    0.0                 !
 ! D11   D(2,1,3,5)           -116.5727         -DE/DX =    0.0                 !
 ! D12   D(2,1,3,6)            116.5727         -DE/DX =    0.0                 !
 ! D13   D(11,1,3,4)          -114.5393         -DE/DX =    0.0                 !
 ! D14   D(11,1,3,5)           128.888          -DE/DX =    0.0                 !
 ! D15   D(11,1,3,6)             2.0334         -DE/DX =    0.0                 !
 ! D16   D(12,1,3,4)           114.5393         -DE/DX =    0.0                 !
 ! D17   D(12,1,3,5)            -2.0334         -DE/DX =    0.0                 !
 ! D18   D(12,1,3,6)          -128.888          -DE/DX =    0.0                 !
 ! D19   D(1,2,4,3)              0.0            -DE/DX =    0.0                 !
 ! D20   D(1,2,4,7)            114.5393         -DE/DX =    0.0                 !
 ! D21   D(1,2,4,8)           -114.5393         -DE/DX =    0.0                 !
 ! D22   D(9,2,4,3)            116.5727         -DE/DX =    0.0                 !
 ! D23   D(9,2,4,7)           -128.888          -DE/DX =    0.0                 !
 ! D24   D(9,2,4,8)              2.0334         -DE/DX =    0.0                 !
 ! D25   D(10,2,4,3)          -116.5727         -DE/DX =    0.0                 !
 ! D26   D(10,2,4,7)            -2.0334         -DE/DX =    0.0                 !
 ! D27   D(10,2,4,8)           128.888          -DE/DX =    0.0                 !
 ! D28   D(1,3,4,2)              0.0            -DE/DX =    0.0                 !
 ! D29   D(1,3,4,7)           -114.5393         -DE/DX =    0.0                 !
 ! D30   D(1,3,4,8)            114.5393         -DE/DX =    0.0                 !
 ! D31   D(5,3,4,2)            116.5727         -DE/DX =    0.0                 !
 ! D32   D(5,3,4,7)              2.0334         -DE/DX =    0.0                 !
 ! D33   D(5,3,4,8)           -128.888          -DE/DX =    0.0                 !
 ! D34   D(6,3,4,2)           -116.5727         -DE/DX =    0.0                 !
 ! D35   D(6,3,4,7)            128.888          -DE/DX =    0.0                 !
 ! D36   D(6,3,4,8)             -2.0334         -DE/DX =    0.0                 !
 --------------------------------------------------------------------------------
 Lowest energy point so far.  Saving SCF results.
 GradGradGradGradGradGradGradGradGradGradGradGradGradGradGradGradGradGrad

 Largest change from initial coordinates is atom    0       0.000 Angstoms.
 Leave Link  103 at Thu Mar  9 14:50:27 2017, MaxMem=  1127874560 cpu:         0.1
 (Enter /share/apps/g09RelE.01/g09/l202.exe)
                          Input orientation:                          
 ---------------------------------------------------------------------
 Center     Atomic      Atomic             Coordinates (Angstroms)
 Number     Number       Type             X           Y           Z
 ---------------------------------------------------------------------
      1          5           0       -0.000000    1.111532    0.000000
      2          7           0       -1.154966    0.000000    0.000000
      3          7           0        1.154966   -0.000000    0.000000
      4          5           0       -0.000000   -1.111532    0.000000
      5          1           0        1.746262   -0.000000    0.819769
      6          1           0        1.746262   -0.000000   -0.819769
      7          1           0       -0.000000   -1.756965    1.018609
      8          1           0        0.000000   -1.756965   -1.018609
      9          1           0       -1.746262   -0.000000   -0.819769
     10          1           0       -1.746262    0.000000    0.819769
     11          1           0        0.000000    1.756965   -1.018609
     12          1           0        0.000000    1.756965    1.018609
 ---------------------------------------------------------------------
                    Distance matrix (angstroms):
                    1          2          3          4          5
     1  B    0.000000
     2  N    1.602950   0.000000
     3  N    1.602950   2.309932   0.000000
     4  B    2.223064   1.602950   1.602950   0.000000
     5  H    2.226422   3.014821   1.010768   2.226422   0.000000
     6  H    2.226422   3.014821   1.010768   2.226422   1.639538
     7  H    3.043984   2.336330   2.336330   1.205881   2.485135
     8  H    3.043984   2.336330   2.336330   1.205881   3.084800
     9  H    2.226422   1.010768   3.014821   2.226422   3.858213
    10  H    2.226422   1.010768   3.014821   2.226422   3.492524
    11  H    1.205881   2.336330   2.336330   3.043984   3.084800
    12  H    1.205881   2.336330   2.336330   3.043984   2.485135
                    6          7          8          9         10
     6  H    0.000000
     7  H    3.084800   0.000000
     8  H    2.485135   2.037218   0.000000
     9  H    3.492524   3.084800   2.485135   0.000000
    10  H    3.858213   2.485135   3.084800   1.639538   0.000000
    11  H    2.485135   4.061768   3.513930   2.485135   3.084800
    12  H    3.084800   3.513930   4.061768   3.084800   2.485135
                   11         12
    11  H    0.000000
    12  H    2.037218   0.000000
 Stoichiometry    B2H8N2
 Framework group  D2H[C2(N.N),C2'(B.B),SG(H4),SG'(H4)]
 Deg. of freedom     6
 Full point group                 D2H     NOp   8
 RotChk:  IX=0 Diff= 1.65D-15
 Largest Abelian subgroup         D2H     NOp   8
 Largest concise Abelian subgroup D2H     NOp   8
                         Standard orientation:                         
 ---------------------------------------------------------------------
 Center     Atomic      Atomic             Coordinates (Angstroms)
 Number     Number       Type             X           Y           Z
 ---------------------------------------------------------------------
      1          5           0        0.000000    1.111532    0.000000
      2          7           0       -1.154966    0.000000    0.000000
      3          7           0        1.154966   -0.000000    0.000000
      4          5           0       -0.000000   -1.111532    0.000000
      5          1           0        1.746262   -0.000000    0.819769
      6          1           0        1.746262   -0.000000   -0.819769
      7          1           0        0.000000   -1.756965    1.018609
      8          1           0        0.000000   -1.756965   -1.018609
      9          1           0       -1.746262   -0.000000   -0.819769
     10          1           0       -1.746262    0.000000    0.819769
     11          1           0        0.000000    1.756965   -1.018609
     12          1           0        0.000000    1.756965    1.018609
 ---------------------------------------------------------------------
 Rotational constants (GHZ):     10.8589673      8.9378441      5.6593225
 Leave Link  202 at Thu Mar  9 14:50:27 2017, MaxMem=  1127874560 cpu:         0.0
 (Enter /share/apps/g09RelE.01/g09/l9999.exe)
 1\1\GINC-COMPUTE-0-12\FOpt\RwB97XD\6-311G(d,p)\B2H8N2\BERTA\09-Mar-201
 7\0\\#P wb97xd/6-311G** int(grid=ultrafine) opt(modred,loose)\\AB-AB-s
 can\\0,1\B,0.,1.111532,0.\N,-1.154966,0.,0.\N,1.154966,0.,0.\B,0.,-1.1
 11532,0.\H,1.746262,0.,0.819769\H,1.746262,0.,-0.819769\H,0.,-1.756965
 ,1.018609\H,0.,-1.756965,-1.018609\H,-1.746262,0.,-0.819769\H,-1.74626
 2,0.,0.819769\H,0.,1.756965,-1.018609\H,0.,1.756965,1.018609\\Version=
 ES64L-G09RevE.01\State=1-AG\HF=-164.1065501\RMSD=3.580e-09\RMSF=2.397e
 -05\Dipole=0.,0.,0.\Quadrupole=6.7515602,-6.9245846,0.1730244,0.,0.,0.
 \PG=D02H [C2(N1.N1),C2'(B1.B1),SG(H4),SG'(H4)]\\@


 WERE I TO AWAIT PERFECTION, MY BOOK WOULD NEVER BE FINISHED.
                                    -- HISTORY OF CHINESE WRITING

                                       TAI T'UNG, 13TH CENTURY
 Job cpu time:       0 days  0 hours  0 minutes 36.9 seconds.
 File lengths (MBytes):  RWF=      8 Int=      0 D2E=      0 Chk=      3 Scr=      1
 Normal termination of Gaussian 09 at Thu Mar  9 14:50:27 2017.
