compute-0-4.local
 Entering Gaussian System, Link 0=g09
 Initial command:
 /share/apps/g09RelE.01/g09/l1.exe "/state/partition1/berta/Gau-4973.inp" -scrdir="/state/partition1/berta/"
 Entering Link 1 = /share/apps/g09RelE.01/g09/l1.exe PID=      4974.
  
 Copyright (c) 1988,1990,1992,1993,1995,1998,2003,2009,2015,
            Gaussian, Inc.  All Rights Reserved.
  
 This is part of the Gaussian(R) 09 program.  It is based on
 the Gaussian(R) 03 system (copyright 2003, Gaussian, Inc.),
 the Gaussian(R) 98 system (copyright 1998, Gaussian, Inc.),
 the Gaussian(R) 94 system (copyright 1995, Gaussian, Inc.),
 the Gaussian 92(TM) system (copyright 1992, Gaussian, Inc.),
 the Gaussian 90(TM) system (copyright 1990, Gaussian, Inc.),
 the Gaussian 88(TM) system (copyright 1988, Gaussian, Inc.),
 the Gaussian 86(TM) system (copyright 1986, Carnegie Mellon
 University), and the Gaussian 82(TM) system (copyright 1983,
 Carnegie Mellon University). Gaussian is a federally registered
 trademark of Gaussian, Inc.
  
 This software contains proprietary and confidential information,
 including trade secrets, belonging to Gaussian, Inc.
  
 This software is provided under written license and may be
 used, copied, transmitted, or stored only in accord with that
 written license.
  
 The following legend is applicable only to US Government
 contracts under FAR:
  
                    RESTRICTED RIGHTS LEGEND
  
 Use, reproduction and disclosure by the US Government is
 subject to restrictions as set forth in subparagraphs (a)
 and (c) of the Commercial Computer Software - Restricted
 Rights clause in FAR 52.227-19.
  
 Gaussian, Inc.
 340 Quinnipiac St., Bldg. 40, Wallingford CT 06492
  
  
 ---------------------------------------------------------------
 Warning -- This program may not be used in any manner that
 competes with the business of Gaussian, Inc. or will provide
 assistance to any competitor of Gaussian, Inc.  The licensee
 of this program is prohibited from giving any competitor of
 Gaussian, Inc. access to this program.  By using this program,
 the user acknowledges that Gaussian, Inc. is engaged in the
 business of creating and licensing software in the field of
 computational chemistry and represents and warrants to the
 licensee that it is not a competitor of Gaussian, Inc. and that
 it will not use this program in any manner prohibited above.
 ---------------------------------------------------------------
  

 Cite this work as:
 Gaussian 09, Revision E.01,
 M. J. Frisch, G. W. Trucks, H. B. Schlegel, G. E. Scuseria, 
 M. A. Robb, J. R. Cheeseman, G. Scalmani, V. Barone, B. Mennucci, 
 G. A. Petersson, H. Nakatsuji, M. Caricato, X. Li, H. P. Hratchian, 
 A. F. Izmaylov, J. Bloino, G. Zheng, J. L. Sonnenberg, M. Hada, 
 M. Ehara, K. Toyota, R. Fukuda, J. Hasegawa, M. Ishida, T. Nakajima, 
 Y. Honda, O. Kitao, H. Nakai, T. Vreven, J. A. Montgomery, Jr., 
 J. E. Peralta, F. Ogliaro, M. Bearpark, J. J. Heyd, E. Brothers, 
 K. N. Kudin, V. N. Staroverov, T. Keith, R. Kobayashi, J. Normand, 
 K. Raghavachari, A. Rendell, J. C. Burant, S. S. Iyengar, J. Tomasi, 
 M. Cossi, N. Rega, J. M. Millam, M. Klene, J. E. Knox, J. B. Cross, 
 V. Bakken, C. Adamo, J. Jaramillo, R. Gomperts, R. E. Stratmann, 
 O. Yazyev, A. J. Austin, R. Cammi, C. Pomelli, J. W. Ochterski, 
 R. L. Martin, K. Morokuma, V. G. Zakrzewski, G. A. Voth, 
 P. Salvador, J. J. Dannenberg, S. Dapprich, A. D. Daniels, 
 O. Farkas, J. B. Foresman, J. V. Ortiz, J. Cioslowski, 
 and D. J. Fox, Gaussian, Inc., Wallingford CT, 2013.
 
 ******************************************
 Gaussian 09:  ES64L-G09RevE.01 30-Nov-2015
                 9-Mar-2017 
 ******************************************
 %chk=AB-AB-NHscan.chk
 %nproc=4
 Will use up to    4 processors via shared memory.
 %mem=6453MB
 -----------------------------------------------------------
 #P RwB97XD/6-311G(d,p)int(grid=ultrafine) opt(modred,loose)
 -----------------------------------------------------------
 1/7=-1,14=-1,18=120,19=15,26=4,38=1/1,3;
 2/9=110,12=2,17=6,18=5,40=1/2;
 3/5=4,6=6,7=101,11=2,16=1,25=1,30=1,71=1,74=-58,75=-5,116=1/1,2,3;
 4//1;
 5/5=2,38=5/2;
 6/7=2,8=2,9=2,10=2,28=1/1;
 7//1,2,3,16;
 1/7=-1,14=-1,18=20,19=15,26=4/3(2);
 2/9=110/2;
 99//99;
 2/9=110/2;
 3/5=4,6=6,7=101,11=2,16=1,25=1,30=1,71=1,74=-58,75=-5,116=1/1,2,3;
 4/5=5,16=3,69=1/1;
 5/5=2,38=5/2;
 7//1,2,3,16;
 1/7=-1,14=-1,18=20,19=15,26=4/3(-5);
 2/9=110/2;
 6/7=2,8=2,9=2,10=2,19=2,28=1/1;
 99/9=1/99;
 Leave Link    1 at Thu Mar  9 15:12:33 2017, MaxMem=   845807616 cpu:         0.2
 (Enter /share/apps/g09RelE.01/g09/l101.exe)
 --------------------
 AB2-mult-scan6_2.gjf
 --------------------
 Symbolic Z-matrix:
 Charge =  0 Multiplicity = 1
 B                     0.03019   1.26248   0. 
 N                    -1.28728  -0.5031    0. 
 N                     1.26312   0.47137   0. 
 B                     0.       -1.20998   0. 
 H                     1.82556   0.43326   0.83509 
 H                     1.82556   0.43326  -0.83509 
 H                     0.37039  -1.68345   1.03621 
 H                     0.37039  -1.68345  -1.03621 
 H                    -1.84924  -0.49336  -0.83541 
 H                    -1.84924  -0.49336   0.83541 
 H                    -0.33761   1.72339  -1.03944 
 H                    -0.33761   1.72339   1.03944 
 
 Add virtual bond connecting atoms N2         and B1         Dist= 4.16D+00.
 Add virtual bond connecting atoms B4         and N3         Dist= 3.97D+00.
 The following ModRedundant input section has been read:
 B       1       2 F                                                           
 B       3       4 S   1 0.1000                                                
 
 NAtoms=     12 NQM=       12 NQMF=       0 NMMI=      0 NMMIF=      0
                NMic=       0 NMicF=      0.
                    Isotopes and Nuclear Properties:
 (Nuclear quadrupole moments (NQMom) in fm**2, nuclear magnetic moments (NMagM)
  in nuclear magnetons)

  Atom         1           2           3           4           5           6           7           8           9          10
 IAtWgt=          11          14          14          11           1           1           1           1           1           1
 AtmWgt=  11.0093053  14.0030740  14.0030740  11.0093053   1.0078250   1.0078250   1.0078250   1.0078250   1.0078250   1.0078250
 NucSpn=           3           2           2           3           1           1           1           1           1           1
 AtZEff=   0.0000000   0.0000000   0.0000000   0.0000000   0.0000000   0.0000000   0.0000000   0.0000000   0.0000000   0.0000000
 NQMom=    4.0590000   2.0440000   2.0440000   4.0590000   0.0000000   0.0000000   0.0000000   0.0000000   0.0000000   0.0000000
 NMagM=    2.6886370   0.4037610   0.4037610   2.6886370   2.7928460   2.7928460   2.7928460   2.7928460   2.7928460   2.7928460
 AtZNuc=   5.0000000   7.0000000   7.0000000   5.0000000   1.0000000   1.0000000   1.0000000   1.0000000   1.0000000   1.0000000

  Atom        11          12
 IAtWgt=           1           1
 AtmWgt=   1.0078250   1.0078250
 NucSpn=           1           1
 AtZEff=   0.0000000   0.0000000
 NQMom=    0.0000000   0.0000000
 NMagM=    2.7928460   2.7928460
 AtZNuc=   1.0000000   1.0000000
 Leave Link  101 at Thu Mar  9 15:12:33 2017, MaxMem=   845807616 cpu:         0.9
 (Enter /share/apps/g09RelE.01/g09/l103.exe)

 GradGradGradGradGradGradGradGradGradGradGradGradGradGradGradGradGradGrad
 Berny optimization.
 Initialization pass.
                           ----------------------------
                           !    Initial Parameters    !
                           ! (Angstroms and Degrees)  !
 --------------------------                            --------------------------
 ! Name  Definition              Value          Derivative Info.                !
 --------------------------------------------------------------------------------
 ! R1    R(1,2)                  2.2029         Frozen                          !
 ! R2    R(1,3)                  1.4649         estimate D2E/DX2                !
 ! R3    R(1,11)                 1.1951         estimate D2E/DX2                !
 ! R4    R(1,12)                 1.1951         estimate D2E/DX2                !
 ! R5    R(2,4)                  1.4686         estimate D2E/DX2                !
 ! R6    R(2,9)                  1.0069         estimate D2E/DX2                !
 ! R7    R(2,10)                 1.0069         estimate D2E/DX2                !
 ! R8    R(3,4)                  2.103          Scan                            !
 ! R9    R(3,5)                  1.0076         estimate D2E/DX2                !
 ! R10   R(3,6)                  1.0076         estimate D2E/DX2                !
 ! R11   R(4,7)                  1.198          estimate D2E/DX2                !
 ! R12   R(4,8)                  1.198          estimate D2E/DX2                !
 ! A1    A(2,1,3)               94.044          estimate D2E/DX2                !
 ! A2    A(2,1,11)              97.1838         estimate D2E/DX2                !
 ! A3    A(2,1,12)              97.1838         estimate D2E/DX2                !
 ! A4    A(3,1,11)             117.8597         estimate D2E/DX2                !
 ! A5    A(3,1,12)             117.8597         estimate D2E/DX2                !
 ! A6    A(11,1,12)            120.868          estimate D2E/DX2                !
 ! A7    A(1,2,4)               82.0422         estimate D2E/DX2                !
 ! A8    A(1,2,9)              109.0278         estimate D2E/DX2                !
 ! A9    A(1,2,10)             109.0278         estimate D2E/DX2                !
 ! A10   A(4,2,9)              119.5958         estimate D2E/DX2                !
 ! A11   A(4,2,10)             119.5958         estimate D2E/DX2                !
 ! A12   A(9,2,10)             112.1359         estimate D2E/DX2                !
 ! A13   A(1,3,4)               85.7704         estimate D2E/DX2                !
 ! A14   A(1,3,5)              119.3572         estimate D2E/DX2                !
 ! A15   A(1,3,6)              119.3572         estimate D2E/DX2                !
 ! A16   A(4,3,5)              107.7612         estimate D2E/DX2                !
 ! A17   A(4,3,6)              107.7612         estimate D2E/DX2                !
 ! A18   A(5,3,6)              111.9567         estimate D2E/DX2                !
 ! A19   A(2,4,3)               98.1435         estimate D2E/DX2                !
 ! A20   A(2,4,7)              117.468          estimate D2E/DX2                !
 ! A21   A(2,4,8)              117.468          estimate D2E/DX2                !
 ! A22   A(3,4,7)               97.486          estimate D2E/DX2                !
 ! A23   A(3,4,8)               97.486          estimate D2E/DX2                !
 ! A24   A(7,4,8)              119.7613         estimate D2E/DX2                !
 ! D1    D(3,1,2,4)              0.0            estimate D2E/DX2                !
 ! D2    D(3,1,2,9)           -118.6393         estimate D2E/DX2                !
 ! D3    D(3,1,2,10)           118.6393         estimate D2E/DX2                !
 ! D4    D(11,1,2,4)           118.7568         estimate D2E/DX2                !
 ! D5    D(11,1,2,9)             0.1175         estimate D2E/DX2                !
 ! D6    D(11,1,2,10)         -122.604          estimate D2E/DX2                !
 ! D7    D(12,1,2,4)          -118.7568         estimate D2E/DX2                !
 ! D8    D(12,1,2,9)           122.604          estimate D2E/DX2                !
 ! D9    D(12,1,2,10)           -0.1175         estimate D2E/DX2                !
 ! D10   D(2,1,3,4)              0.0            estimate D2E/DX2                !
 ! D11   D(2,1,3,5)           -108.0203         estimate D2E/DX2                !
 ! D12   D(2,1,3,6)            108.0203         estimate D2E/DX2                !
 ! D13   D(11,1,3,4)          -100.3214         estimate D2E/DX2                !
 ! D14   D(11,1,3,5)           151.6582         estimate D2E/DX2                !
 ! D15   D(11,1,3,6)             7.6989         estimate D2E/DX2                !
 ! D16   D(12,1,3,4)           100.3214         estimate D2E/DX2                !
 ! D17   D(12,1,3,5)            -7.6989         estimate D2E/DX2                !
 ! D18   D(12,1,3,6)          -151.6582         estimate D2E/DX2                !
 ! D19   D(1,2,4,3)              0.0            estimate D2E/DX2                !
 ! D20   D(1,2,4,7)            102.869          estimate D2E/DX2                !
 ! D21   D(1,2,4,8)           -102.869          estimate D2E/DX2                !
 ! D22   D(9,2,4,3)            107.4091         estimate D2E/DX2                !
 ! D23   D(9,2,4,7)           -149.7219         estimate D2E/DX2                !
 ! D24   D(9,2,4,8)              4.5401         estimate D2E/DX2                !
 ! D25   D(10,2,4,3)          -107.4091         estimate D2E/DX2                !
 ! D26   D(10,2,4,7)            -4.5401         estimate D2E/DX2                !
 ! D27   D(10,2,4,8)           149.7219         estimate D2E/DX2                !
 ! D28   D(1,3,4,2)              0.0            estimate D2E/DX2                !
 ! D29   D(1,3,4,7)           -119.2591         estimate D2E/DX2                !
 ! D30   D(1,3,4,8)            119.2591         estimate D2E/DX2                !
 ! D31   D(5,3,4,2)            119.5055         estimate D2E/DX2                !
 ! D32   D(5,3,4,7)              0.2463         estimate D2E/DX2                !
 ! D33   D(5,3,4,8)           -121.2354         estimate D2E/DX2                !
 ! D34   D(6,3,4,2)           -119.5055         estimate D2E/DX2                !
 ! D35   D(6,3,4,7)            121.2354         estimate D2E/DX2                !
 ! D36   D(6,3,4,8)             -0.2463         estimate D2E/DX2                !
 --------------------------------------------------------------------------------
 Trust Radius=3.00D-01 FncErr=1.00D-07 GrdErr=1.00D-06
 Number of optimizations in scan=   2
 Number of steps in this run=     82 maximum allowed number of steps=    100.
 GradGradGradGradGradGradGradGradGradGradGradGradGradGradGradGradGradGrad

 Leave Link  103 at Thu Mar  9 15:12:33 2017, MaxMem=   845807616 cpu:         0.0
 (Enter /share/apps/g09RelE.01/g09/l202.exe)
                          Input orientation:                          
 ---------------------------------------------------------------------
 Center     Atomic      Atomic             Coordinates (Angstroms)
 Number     Number       Type             X           Y           Z
 ---------------------------------------------------------------------
      1          5           0        0.030186    1.262475    0.000000
      2          7           0       -1.287280   -0.503104    0.000000
      3          7           0        1.263117    0.471369    0.000000
      4          5           0        0.000000   -1.209981    0.000000
      5          1           0        1.825563    0.433258    0.835092
      6          1           0        1.825563    0.433258   -0.835092
      7          1           0        0.370393   -1.683450    1.036207
      8          1           0        0.370393   -1.683450   -1.036207
      9          1           0       -1.849244   -0.493357   -0.835407
     10          1           0       -1.849244   -0.493357    0.835407
     11          1           0       -0.337607    1.723386   -1.039443
     12          1           0       -0.337607    1.723386    1.039443
 ---------------------------------------------------------------------
                    Distance matrix (angstroms):
                    1          2          3          4          5
     1  B    0.000000
     2  N    2.202949   0.000000
     3  N    1.464912   2.730224   0.000000
     4  B    2.472640   1.468593   2.102951   0.000000
     5  H    2.146709   3.356180   1.007560   2.594281   0.000000
     6  H    2.146709   3.356180   1.007560   2.594281   1.670184
     7  H    3.141328   2.283598   2.552239   1.197952   2.576513
     8  H    3.141328   2.283598   2.552239   1.197952   3.178008
     9  H    2.704276   1.006878   3.363836   2.152013   4.141665
    10  H    2.704276   1.006878   3.363836   2.152013   3.789831
    11  H    1.195053   2.634308   2.282609   3.130345   3.139684
    12  H    1.195053   2.634308   2.282609   3.130345   2.526954
                    6          7          8          9         10
     6  H    0.000000
     7  H    3.178008   0.000000
     8  H    2.576513   2.072414   0.000000
     9  H    3.789831   3.137841   2.526545   0.000000
    10  H    4.141665   2.526545   3.137841   1.670814   0.000000
    11  H    2.526954   4.051681   3.479627   2.690841   3.273234
    12  H    3.139684   3.479627   4.051681   3.273234   2.690841
                   11         12
    11  H    0.000000
    12  H    2.078886   0.000000
 Stoichiometry    B2H8N2
 Framework group  CS[SG(B2N2),X(H8)]
 Deg. of freedom    17
 Full point group                 CS      NOp   2
 Largest Abelian subgroup         CS      NOp   2
 Largest concise Abelian subgroup CS      NOp   2
                         Standard orientation:                         
 ---------------------------------------------------------------------
 Center     Atomic      Atomic             Coordinates (Angstroms)
 Number     Number       Type             X           Y           Z
 ---------------------------------------------------------------------
      1          5           0       -0.030186   -1.262475    0.000000
      2          7           0        1.287280    0.503104    0.000000
      3          7           0       -1.263117   -0.471369    0.000000
      4          5           0        0.000000    1.209981    0.000000
      5          1           0       -1.825563   -0.433258    0.835092
      6          1           0       -1.825563   -0.433258   -0.835092
      7          1           0       -0.370393    1.683450    1.036207
      8          1           0       -0.370393    1.683450   -1.036207
      9          1           0        1.849244    0.493357   -0.835407
     10          1           0        1.849244    0.493357    0.835407
     11          1           0        0.337607   -1.723386   -1.039443
     12          1           0        0.337607   -1.723386    1.039443
 ---------------------------------------------------------------------
 Rotational constants (GHZ):     11.4074208      6.1207945      4.4898112
 Leave Link  202 at Thu Mar  9 15:12:33 2017, MaxMem=   845807616 cpu:         0.0
 (Enter /share/apps/g09RelE.01/g09/l301.exe)
 Standard basis: 6-311G(d,p) (5D, 7F)
 Ernie: Thresh=  0.10000D-02 Tol=  0.10000D-05 Strict=F.
 There are    80 symmetry adapted cartesian basis functions of A'  symmetry.
 There are    44 symmetry adapted cartesian basis functions of A"  symmetry.
 There are    76 symmetry adapted basis functions of A'  symmetry.
 There are    44 symmetry adapted basis functions of A"  symmetry.
   120 basis functions,   192 primitive gaussians,   124 cartesian basis functions
    16 alpha electrons       16 beta electrons
       nuclear repulsion energy       114.9997664681 Hartrees.
 IExCor= 4639 DFT=T Ex+Corr=wB97XD ExCW=0 ScaHFX=  1.000000
 ScaDFX=  1.000000  1.000000  1.000000  1.000000 ScalE2=  1.000000  1.000000
 IRadAn=      5 IRanWt=     -1 IRanGd=            0 ICorTp=0 IEmpDi=121
  HFx wShort=  0.000000 wLong=  0.200000 cFull=  0.222036 cShort=  0.000000 cLong=  0.777964
  DFx wShort=  0.000000 wLong=  0.200000 cFull=  0.000000 cShort=  0.000000 cLong=  1.000000
 NAtoms=   12 NActive=   12 NUniq=    8 SFac= 2.25D+00 NAtFMM=   60 NAOKFM=F Big=F
 Integral buffers will be    131072 words long.
 Raffenetti 2 integral format.
 Two-electron integral symmetry is turned on.
 R6Disp:  Grimme-D2 Dispersion energy=       -0.0055693821 Hartrees.
 Nuclear repulsion after empirical dispersion term =      114.9941970860 Hartrees.
 Leave Link  301 at Thu Mar  9 15:12:33 2017, MaxMem=   845807616 cpu:         0.2
 (Enter /share/apps/g09RelE.01/g09/l302.exe)
 NPDir=0 NMtPBC=     1 NCelOv=     1 NCel=       1 NClECP=     1 NCelD=      1
         NCelK=      1 NCelE2=     1 NClLst=     1 CellRange=     0.0.
 One-electron integrals computed using PRISM.
 One-electron integral symmetry used in STVInt
 NBasis=   120 RedAO= T EigKep=  5.79D-03  NBF=    76    44
 NBsUse=   120 1.00D-06 EigRej= -1.00D+00 NBFU=    76    44
 Precomputing XC quadrature grid using
 IXCGrd= 4 IRadAn=           5 IRanWt=          -1 IRanGd=           0 AccXCQ= 0.00D+00.
 Generated NRdTot=       0 NPtTot=           0 NUsed=           0 NTot=          32
 NSgBfM=   124   124   124   124   124 MxSgAt=    12 MxSgA2=    12.
 Leave Link  302 at Thu Mar  9 15:12:33 2017, MaxMem=   845807616 cpu:         1.0
 (Enter /share/apps/g09RelE.01/g09/l303.exe)
 DipDrv:  MaxL=1.
 Leave Link  303 at Thu Mar  9 15:12:33 2017, MaxMem=   845807616 cpu:         0.1
 (Enter /share/apps/g09RelE.01/g09/l401.exe)
 ExpMin= 9.89D-02 ExpMax= 6.29D+03 ExpMxC= 9.49D+02 IAcc=3 IRadAn=         5 AccDes= 0.00D+00
 Harris functional with IExCor= 4639 and IRadAn=       5 diagonalized for initial guess.
 HarFok:  IExCor= 4639 AccDes= 0.00D+00 IRadAn=         5 IDoV= 1 UseB2=F ITyADJ=14
 ICtDFT=  3500011 ScaDFX=  1.000000  1.000000  1.000000  1.000000
 FoFCou: FMM=F IPFlag=           0 FMFlag=      100000 FMFlg1=           0
         NFxFlg=           0 DoJE=T BraDBF=F KetDBF=T FulRan=T
         wScrn=  0.000000 ICntrl=     500 IOpCl=  0 I1Cent=   200000004 NGrid=           0
         NMat0=    1 NMatS0=      1 NMatT0=    0 NMatD0=    1 NMtDS0=    0 NMtDT0=    0
 Petite list used in FoFCou.
 Harris En= -156.189372042506    
 JPrj=0 DoOrth=F DoCkMO=F.
 Initial guess orbital symmetries:
       Occupied  (A') (A') (A') (A') (A') (A') (A') (A') (A") (A")
                 (A') (A') (A') (A") (A") (A')
       Virtual   (A') (A') (A') (A") (A') (A') (A") (A') (A") (A')
                 (A') (A") (A') (A") (A') (A") (A') (A') (A') (A")
                 (A') (A") (A') (A') (A") (A') (A') (A") (A") (A')
                 (A') (A") (A') (A') (A') (A") (A") (A') (A') (A')
                 (A") (A') (A") (A') (A") (A') (A") (A') (A') (A")
                 (A") (A') (A") (A') (A") (A') (A") (A') (A") (A')
                 (A') (A') (A") (A") (A') (A") (A') (A') (A') (A")
                 (A') (A') (A') (A') (A") (A") (A') (A") (A") (A')
                 (A') (A") (A') (A") (A') (A') (A') (A") (A') (A')
                 (A") (A') (A") (A") (A') (A') (A') (A') (A") (A")
                 (A') (A') (A') (A')
 The electronic state of the initial guess is 1-A'.
 Leave Link  401 at Thu Mar  9 15:12:34 2017, MaxMem=   845807616 cpu:         3.8
 (Enter /share/apps/g09RelE.01/g09/l502.exe)
 Closed shell SCF:
 Using DIIS extrapolation, IDIIS=  1040.
 Integral symmetry usage will be decided dynamically.
 Keep R1 ints in memory in symmetry-blocked form, NReq=79321962.
 IVT=       66538 IEndB=       66538 NGot=   845807616 MDV=   832462961
 LenX=   832462961 LenY=   832447144
 Requested convergence on RMS density matrix=1.00D-08 within 128 cycles.
 Requested convergence on MAX density matrix=1.00D-06.
 Requested convergence on             energy=1.00D-06.
 No special actions if energy rises.
 FoFCou: FMM=F IPFlag=           0 FMFlag=           0 FMFlg1=           0
         NFxFlg=           0 DoJE=F BraDBF=F KetDBF=F FulRan=T
         wScrn=  0.000000 ICntrl=     600 IOpCl=  0 I1Cent=           0 NGrid=           0
         NMat0=    1 NMatS0=   7260 NMatT0=    0 NMatD0=    1 NMtDS0=    0 NMtDT0=    0
 Petite list used in FoFCou.
 Integral accuracy reduced to 1.0D-05 until final iterations.

 Cycle   1  Pass 0  IDiag  1:
 E= -164.016854686522    
 DIIS: error= 9.68D-02 at cycle   1 NSaved=   1.
 NSaved= 1 IEnMin= 1 EnMin= -164.016854686522     IErMin= 1 ErrMin= 9.68D-02
 ErrMax= 9.68D-02  0.00D+00 EMaxC= 1.00D-01 BMatC= 3.45D-01 BMatP= 3.45D-01
 IDIUse=3 WtCom= 3.18D-02 WtEn= 9.68D-01
 Coeff-Com:  0.100D+01
 Coeff-En:   0.100D+01
 Coeff:      0.100D+01
 Gap=     0.432 Goal=   None    Shift=    0.000
 GapD=    0.432 DampG=2.000 DampE=0.500 DampFc=1.0000 IDamp=-1.
 RMSDP=1.63D-03 MaxDP=2.48D-02              OVMax= 7.76D-02

 Cycle   2  Pass 0  IDiag  1:
 E= -164.060256970736     Delta-E=       -0.043402284214 Rises=F Damp=F
 DIIS: error= 7.51D-03 at cycle   2 NSaved=   2.
 NSaved= 2 IEnMin= 2 EnMin= -164.060256970736     IErMin= 2 ErrMin= 7.51D-03
 ErrMax= 7.51D-03  0.00D+00 EMaxC= 1.00D-01 BMatC= 4.14D-03 BMatP= 3.45D-01
 IDIUse=3 WtCom= 9.25D-01 WtEn= 7.51D-02
 Coeff-Com:  0.571D-01 0.943D+00
 Coeff-En:   0.000D+00 0.100D+01
 Coeff:      0.528D-01 0.947D+00
 Gap=     0.407 Goal=   None    Shift=    0.000
 RMSDP=5.26D-04 MaxDP=1.84D-02 DE=-4.34D-02 OVMax= 1.73D-02

 Cycle   3  Pass 0  IDiag  1:
 E= -164.062518839985     Delta-E=       -0.002261869249 Rises=F Damp=F
 DIIS: error= 3.75D-03 at cycle   3 NSaved=   3.
 NSaved= 3 IEnMin= 3 EnMin= -164.062518839985     IErMin= 3 ErrMin= 3.75D-03
 ErrMax= 3.75D-03  0.00D+00 EMaxC= 1.00D-01 BMatC= 1.43D-03 BMatP= 4.14D-03
 IDIUse=3 WtCom= 9.62D-01 WtEn= 3.75D-02
 Coeff-Com:  0.161D-01 0.386D+00 0.598D+00
 Coeff-En:   0.000D+00 0.142D+00 0.858D+00
 Coeff:      0.155D-01 0.377D+00 0.607D+00
 Gap=     0.410 Goal=   None    Shift=    0.000
 RMSDP=2.04D-04 MaxDP=7.46D-03 DE=-2.26D-03 OVMax= 1.19D-02

 Cycle   4  Pass 0  IDiag  1:
 E= -164.063712313808     Delta-E=       -0.001193473822 Rises=F Damp=F
 DIIS: error= 6.81D-04 at cycle   4 NSaved=   4.
 NSaved= 4 IEnMin= 4 EnMin= -164.063712313808     IErMin= 4 ErrMin= 6.81D-04
 ErrMax= 6.81D-04  0.00D+00 EMaxC= 1.00D-01 BMatC= 6.03D-05 BMatP= 1.43D-03
 IDIUse=3 WtCom= 9.93D-01 WtEn= 6.81D-03
 Coeff-Com:  0.379D-02 0.905D-01 0.222D+00 0.684D+00
 Coeff-En:   0.000D+00 0.000D+00 0.000D+00 0.100D+01
 Coeff:      0.376D-02 0.899D-01 0.220D+00 0.686D+00
 Gap=     0.409 Goal=   None    Shift=    0.000
 RMSDP=4.32D-05 MaxDP=1.66D-03 DE=-1.19D-03 OVMax= 2.25D-03

 Cycle   5  Pass 0  IDiag  1:
 E= -164.063763643379     Delta-E=       -0.000051329571 Rises=F Damp=F
 DIIS: error= 2.39D-04 at cycle   5 NSaved=   5.
 NSaved= 5 IEnMin= 5 EnMin= -164.063763643379     IErMin= 5 ErrMin= 2.39D-04
 ErrMax= 2.39D-04  0.00D+00 EMaxC= 1.00D-01 BMatC= 4.71D-06 BMatP= 6.03D-05
 IDIUse=3 WtCom= 9.98D-01 WtEn= 2.39D-03
 Coeff-Com: -0.188D-02-0.405D-01-0.326D-01 0.175D+00 0.900D+00
 Coeff-En:   0.000D+00 0.000D+00 0.000D+00 0.000D+00 0.100D+01
 Coeff:     -0.188D-02-0.404D-01-0.325D-01 0.175D+00 0.900D+00
 Gap=     0.409 Goal=   None    Shift=    0.000
 RMSDP=2.39D-05 MaxDP=5.02D-04 DE=-5.13D-05 OVMax= 1.29D-03

 Cycle   6  Pass 0  IDiag  1:
 E= -164.063771230617     Delta-E=       -0.000007587238 Rises=F Damp=F
 DIIS: error= 8.01D-05 at cycle   6 NSaved=   6.
 NSaved= 6 IEnMin= 6 EnMin= -164.063771230617     IErMin= 6 ErrMin= 8.01D-05
 ErrMax= 8.01D-05  0.00D+00 EMaxC= 1.00D-01 BMatC= 3.40D-07 BMatP= 4.71D-06
 IDIUse=1 WtCom= 1.00D+00 WtEn= 0.00D+00
 Coeff-Com: -0.692D-03-0.146D-01-0.168D-01 0.827D-02 0.224D+00 0.799D+00
 Coeff:     -0.692D-03-0.146D-01-0.168D-01 0.827D-02 0.224D+00 0.799D+00
 Gap=     0.409 Goal=   None    Shift=    0.000
 RMSDP=6.65D-06 MaxDP=1.30D-04 DE=-7.59D-06 OVMax= 4.95D-04

 Initial convergence to 1.0D-05 achieved.  Increase integral accuracy.
 Cycle   7  Pass 1  IDiag  1:
 E= -164.063793618011     Delta-E=       -0.000022387395 Rises=F Damp=F
 DIIS: error= 4.15D-05 at cycle   1 NSaved=   1.
 NSaved= 1 IEnMin= 1 EnMin= -164.063793618011     IErMin= 1 ErrMin= 4.15D-05
 ErrMax= 4.15D-05  0.00D+00 EMaxC= 1.00D-01 BMatC= 2.42D-07 BMatP= 2.42D-07
 IDIUse=1 WtCom= 1.00D+00 WtEn= 0.00D+00
 Coeff-Com:  0.100D+01
 Coeff:      0.100D+01
 Gap=     0.409 Goal=   None    Shift=    0.000
 RMSDP=6.65D-06 MaxDP=1.30D-04 DE=-2.24D-05 OVMax= 2.86D-04

 Cycle   8  Pass 1  IDiag  1:
 E= -164.063793854132     Delta-E=       -0.000000236121 Rises=F Damp=F
 DIIS: error= 3.90D-05 at cycle   2 NSaved=   2.
 NSaved= 2 IEnMin= 2 EnMin= -164.063793854132     IErMin= 2 ErrMin= 3.90D-05
 ErrMax= 3.90D-05  0.00D+00 EMaxC= 1.00D-01 BMatC= 1.08D-07 BMatP= 2.42D-07
 IDIUse=1 WtCom= 1.00D+00 WtEn= 0.00D+00
 Coeff-Com:  0.365D+00 0.635D+00
 Coeff:      0.365D+00 0.635D+00
 Gap=     0.409 Goal=   None    Shift=    0.000
 RMSDP=2.00D-06 MaxDP=8.12D-05 DE=-2.36D-07 OVMax= 1.38D-04

 Cycle   9  Pass 1  IDiag  1:
 E= -164.063793940947     Delta-E=       -0.000000086815 Rises=F Damp=F
 DIIS: error= 1.38D-05 at cycle   3 NSaved=   3.
 NSaved= 3 IEnMin= 3 EnMin= -164.063793940947     IErMin= 3 ErrMin= 1.38D-05
 ErrMax= 1.38D-05  0.00D+00 EMaxC= 1.00D-01 BMatC= 1.48D-08 BMatP= 1.08D-07
 IDIUse=1 WtCom= 1.00D+00 WtEn= 0.00D+00
 Coeff-Com: -0.688D-01 0.225D+00 0.844D+00
 Coeff:     -0.688D-01 0.225D+00 0.844D+00
 Gap=     0.409 Goal=   None    Shift=    0.000
 RMSDP=9.78D-07 MaxDP=1.97D-05 DE=-8.68D-08 OVMax= 8.29D-05

 Cycle  10  Pass 1  IDiag  1:
 E= -164.063793960264     Delta-E=       -0.000000019316 Rises=F Damp=F
 DIIS: error= 3.51D-06 at cycle   4 NSaved=   4.
 NSaved= 4 IEnMin= 4 EnMin= -164.063793960264     IErMin= 4 ErrMin= 3.51D-06
 ErrMax= 3.51D-06  0.00D+00 EMaxC= 1.00D-01 BMatC= 5.03D-10 BMatP= 1.48D-08
 IDIUse=1 WtCom= 1.00D+00 WtEn= 0.00D+00
 Coeff-Com: -0.224D-01-0.100D-01 0.548D-01 0.978D+00
 Coeff:     -0.224D-01-0.100D-01 0.548D-01 0.978D+00
 Gap=     0.409 Goal=   None    Shift=    0.000
 RMSDP=3.95D-07 MaxDP=5.62D-06 DE=-1.93D-08 OVMax= 3.75D-05

 Cycle  11  Pass 1  IDiag  1:
 E= -164.063793962147     Delta-E=       -0.000000001883 Rises=F Damp=F
 DIIS: error= 2.18D-06 at cycle   5 NSaved=   5.
 NSaved= 5 IEnMin= 5 EnMin= -164.063793962147     IErMin= 5 ErrMin= 2.18D-06
 ErrMax= 2.18D-06  0.00D+00 EMaxC= 1.00D-01 BMatC= 1.86D-10 BMatP= 5.03D-10
 IDIUse=1 WtCom= 1.00D+00 WtEn= 0.00D+00
 Coeff-Com:  0.354D-02-0.424D-01-0.131D+00 0.378D+00 0.792D+00
 Coeff:      0.354D-02-0.424D-01-0.131D+00 0.378D+00 0.792D+00
 Gap=     0.409 Goal=   None    Shift=    0.000
 RMSDP=2.03D-07 MaxDP=3.10D-06 DE=-1.88D-09 OVMax= 1.94D-05

 Cycle  12  Pass 1  IDiag  1:
 E= -164.063793962602     Delta-E=       -0.000000000455 Rises=F Damp=F
 DIIS: error= 5.75D-07 at cycle   6 NSaved=   6.
 NSaved= 6 IEnMin= 6 EnMin= -164.063793962602     IErMin= 6 ErrMin= 5.75D-07
 ErrMax= 5.75D-07  0.00D+00 EMaxC= 1.00D-01 BMatC= 1.74D-11 BMatP= 1.86D-10
 IDIUse=1 WtCom= 1.00D+00 WtEn= 0.00D+00
 Coeff-Com:  0.391D-02-0.495D-02-0.310D-01-0.109D+00 0.162D+00 0.979D+00
 Coeff:      0.391D-02-0.495D-02-0.310D-01-0.109D+00 0.162D+00 0.979D+00
 Gap=     0.409 Goal=   None    Shift=    0.000
 RMSDP=8.49D-08 MaxDP=1.17D-06 DE=-4.55D-10 OVMax= 8.63D-06

 Cycle  13  Pass 1  IDiag  1:
 E= -164.063793962661     Delta-E=       -0.000000000059 Rises=F Damp=F
 DIIS: error= 1.07D-07 at cycle   7 NSaved=   7.
 NSaved= 7 IEnMin= 7 EnMin= -164.063793962661     IErMin= 7 ErrMin= 1.07D-07
 ErrMax= 1.07D-07  0.00D+00 EMaxC= 1.00D-01 BMatC= 5.83D-13 BMatP= 1.74D-11
 IDIUse=1 WtCom= 1.00D+00 WtEn= 0.00D+00
 Coeff-Com:  0.118D-04 0.269D-02 0.761D-02-0.327D-01-0.490D-01 0.629D-01
 Coeff-Com:  0.101D+01
 Coeff:      0.118D-04 0.269D-02 0.761D-02-0.327D-01-0.490D-01 0.629D-01
 Coeff:      0.101D+01
 Gap=     0.409 Goal=   None    Shift=    0.000
 RMSDP=1.69D-08 MaxDP=2.63D-07 DE=-5.87D-11 OVMax= 1.62D-06

 Cycle  14  Pass 1  IDiag  1:
 E= -164.063793962663     Delta-E=       -0.000000000002 Rises=F Damp=F
 DIIS: error= 2.12D-08 at cycle   8 NSaved=   8.
 NSaved= 8 IEnMin= 8 EnMin= -164.063793962663     IErMin= 8 ErrMin= 2.12D-08
 ErrMax= 2.12D-08  0.00D+00 EMaxC= 1.00D-01 BMatC= 2.80D-14 BMatP= 5.83D-13
 IDIUse=1 WtCom= 1.00D+00 WtEn= 0.00D+00
 Coeff-Com: -0.207D-03 0.382D-03 0.199D-02 0.572D-02-0.124D-01-0.520D-01
 Coeff-Com: -0.786D-02 0.106D+01
 Coeff:     -0.207D-03 0.382D-03 0.199D-02 0.572D-02-0.124D-01-0.520D-01
 Coeff:     -0.786D-02 0.106D+01
 Gap=     0.409 Goal=   None    Shift=    0.000
 RMSDP=3.89D-09 MaxDP=5.68D-08 DE=-2.39D-12 OVMax= 2.97D-07

 SCF Done:  E(RwB97XD) =  -164.063793963     A.U. after   14 cycles
            NFock= 14  Conv=0.39D-08     -V/T= 2.0049
 KE= 1.632622489118D+02 PE=-6.111968178109D+02 EE= 1.688765778504D+02
 Leave Link  502 at Thu Mar  9 15:12:46 2017, MaxMem=   845807616 cpu:        47.1
 (Enter /share/apps/g09RelE.01/g09/l601.exe)
 Copying SCF densities to generalized density rwf, IOpCl= 0 IROHF=0.

 **********************************************************************

            Population analysis using the SCF density.

 **********************************************************************

 Orbital symmetries:
       Occupied  (A') (A') (A') (A') (A') (A') (A') (A") (A') (A")
                 (A') (A') (A') (A") (A") (A')
       Virtual   (A') (A') (A') (A") (A') (A") (A') (A') (A") (A')
                 (A") (A') (A") (A') (A') (A") (A') (A') (A') (A")
                 (A") (A') (A') (A') (A') (A") (A') (A") (A") (A')
                 (A') (A") (A') (A') (A') (A") (A") (A') (A') (A')
                 (A") (A") (A') (A') (A") (A") (A') (A') (A') (A")
                 (A") (A') (A") (A") (A') (A') (A") (A') (A") (A')
                 (A') (A') (A") (A") (A") (A') (A') (A') (A") (A')
                 (A') (A') (A') (A') (A") (A') (A") (A") (A") (A')
                 (A') (A") (A') (A") (A') (A') (A') (A") (A') (A')
                 (A") (A') (A") (A") (A') (A') (A') (A') (A") (A")
                 (A') (A') (A') (A')
 The electronic state is 1-A'.
 Alpha  occ. eigenvalues --  -14.42681 -14.41537  -6.85022  -6.84218  -0.97556
 Alpha  occ. eigenvalues --   -0.95075  -0.62565  -0.60139  -0.59610  -0.58092
 Alpha  occ. eigenvalues --   -0.47848  -0.47155  -0.42983  -0.40311  -0.39279
 Alpha  occ. eigenvalues --   -0.32426
 Alpha virt. eigenvalues --    0.08495   0.10957   0.14649   0.15228   0.17687
 Alpha virt. eigenvalues --    0.19349   0.20479   0.20979   0.23701   0.24713
 Alpha virt. eigenvalues --    0.26678   0.27486   0.33622   0.34861   0.39230
 Alpha virt. eigenvalues --    0.41860   0.45636   0.47572   0.49176   0.52665
 Alpha virt. eigenvalues --    0.53227   0.54268   0.55251   0.59167   0.62985
 Alpha virt. eigenvalues --    0.63465   0.65271   0.69585   0.77433   0.77621
 Alpha virt. eigenvalues --    0.78251   0.79901   0.82199   0.91150   0.92259
 Alpha virt. eigenvalues --    1.04438   1.05306   1.06216   1.10400   1.16277
 Alpha virt. eigenvalues --    1.20122   1.26537   1.26769   1.30296   1.33002
 Alpha virt. eigenvalues --    1.36383   1.38586   1.45001   1.63870   1.64766
 Alpha virt. eigenvalues --    1.70687   1.71357   1.71976   1.76043   1.76659
 Alpha virt. eigenvalues --    1.80331   1.84432   1.84722   1.88713   1.95931
 Alpha virt. eigenvalues --    1.98455   2.01154   2.02430   2.03322   2.09890
 Alpha virt. eigenvalues --    2.10145   2.13742   2.19442   2.20523   2.20855
 Alpha virt. eigenvalues --    2.29184   2.36607   2.51298   2.53014   2.53962
 Alpha virt. eigenvalues --    2.56475   2.56689   2.63595   2.63945   2.68601
 Alpha virt. eigenvalues --    2.71806   2.76093   2.78661   2.79840   2.82018
 Alpha virt. eigenvalues --    2.90666   2.92697   2.97665   3.02614   3.06702
 Alpha virt. eigenvalues --    3.07066   3.17749   3.25991   3.32200   3.99010
 Alpha virt. eigenvalues --    4.07378   4.64613   4.76590   4.85619   4.86490
 Alpha virt. eigenvalues --   14.70550  14.80062  35.71041  35.75108
          Condensed to atoms (all electrons):
               1          2          3          4          5          6
     1  B    3.589173   0.101470   0.374940  -0.020361  -0.031658  -0.031658
     2  N    0.101470   6.426945  -0.055837   0.381464   0.002126   0.002126
     3  N    0.374940  -0.055837   6.420183   0.108494   0.372697   0.372697
     4  B   -0.020361   0.381464   0.108494   3.581581  -0.005007  -0.005007
     5  H   -0.031658   0.002126   0.372697  -0.005007   0.461139  -0.031945
     6  H   -0.031658   0.002126   0.372697  -0.005007  -0.031945   0.461139
     7  H   -0.002052  -0.022906  -0.019391   0.434978  -0.002574   0.001556
     8  H   -0.002052  -0.022906  -0.019391   0.434978   0.001556  -0.002574
     9  H   -0.003194   0.374339   0.002034  -0.033815  -0.000172  -0.000021
    10  H   -0.003194   0.374339   0.002034  -0.033815  -0.000021  -0.000172
    11  H    0.433327  -0.015280  -0.021959  -0.002150   0.005441  -0.009971
    12  H    0.433327  -0.015280  -0.021959  -0.002150  -0.009971   0.005441
               7          8          9         10         11         12
     1  B   -0.002052  -0.002052  -0.003194  -0.003194   0.433327   0.433327
     2  N   -0.022906  -0.022906   0.374339   0.374339  -0.015280  -0.015280
     3  N   -0.019391  -0.019391   0.002034   0.002034  -0.021959  -0.021959
     4  B    0.434978   0.434978  -0.033815  -0.033815  -0.002150  -0.002150
     5  H   -0.002574   0.001556  -0.000172  -0.000021   0.005441  -0.009971
     6  H    0.001556  -0.002574  -0.000021  -0.000172  -0.009971   0.005441
     7  H    0.695930  -0.021410   0.005702  -0.010322  -0.000693   0.001227
     8  H   -0.021410   0.695930  -0.010322   0.005702   0.001227  -0.000693
     9  H    0.005702  -0.010322   0.466301  -0.032904  -0.001875   0.001252
    10  H   -0.010322   0.005702  -0.032904   0.466301   0.001252  -0.001875
    11  H   -0.000693   0.001227  -0.001875   0.001252   0.681946  -0.021448
    12  H    0.001227  -0.000693   0.001252  -0.001875  -0.021448   0.681946
 Mulliken charges:
               1
     1  B    0.161931
     2  N   -0.530600
     3  N   -0.514541
     4  B    0.160809
     5  H    0.238389
     6  H    0.238389
     7  H   -0.060046
     8  H   -0.060046
     9  H    0.232676
    10  H    0.232676
    11  H   -0.049818
    12  H   -0.049818
 Sum of Mulliken charges =  -0.00000
 Mulliken charges with hydrogens summed into heavy atoms:
               1
     1  B    0.062295
     2  N   -0.065248
     3  N   -0.037762
     4  B    0.040716
 Electronic spatial extent (au):  <R**2>=            327.6697
 Charge=              0.0000 electrons
 Dipole moment (field-independent basis, Debye):
    X=             -0.1890    Y=             -0.2282    Z=              0.0000  Tot=              0.2963
 Quadrupole moment (field-independent basis, Debye-Ang):
   XX=            -20.5146   YY=            -33.4231   ZZ=            -26.7151
   XY=              2.8582   XZ=             -0.0000   YZ=              0.0000
 Traceless Quadrupole moment (field-independent basis, Debye-Ang):
   XX=              6.3697   YY=             -6.5388   ZZ=              0.1692
   XY=              2.8582   XZ=             -0.0000   YZ=              0.0000
 Octapole moment (field-independent basis, Debye-Ang**2):
  XXX=             -0.1756  YYY=             -0.7575  ZZZ=              0.0000  XYY=              0.1090
  XXY=              0.2325  XXZ=             -0.0000  XZZ=              0.0863  YZZ=             -0.0794
  YYZ=              0.0000  XYZ=             -0.0000
 Hexadecapole moment (field-independent basis, Debye-Ang**3):
 XXXX=           -147.7208 YYYY=           -240.7635 ZZZZ=            -66.2886 XXXY=            -11.0773
 XXXZ=             -0.0000 YYYX=            -14.5964 YYYZ=             -0.0000 ZZZX=             -0.0000
 ZZZY=             -0.0000 XXYY=            -71.2666 XXZZ=            -28.3994 YYZZ=            -54.0689
 XXYZ=             -0.0000 YYXZ=             -0.0000 ZZXY=             -2.0765
 N-N= 1.149941970860D+02 E-N=-6.111968187782D+02  KE= 1.632622489118D+02
 Symmetry A'   KE= 1.548787496272D+02
 Symmetry A"   KE= 8.383499284542D+00
 No NMR shielding tensors so no spin-rotation constants.
 Leave Link  601 at Thu Mar  9 15:12:47 2017, MaxMem=   845807616 cpu:         0.7
 (Enter /share/apps/g09RelE.01/g09/l701.exe)
 Compute integral first derivatives.
 ... and contract with generalized density number  0.
 R6Disp: Adding Grimme-D2 dispersion energy 1st derivatives to the gradient.
 Leave Link  701 at Thu Mar  9 15:12:47 2017, MaxMem=   845807616 cpu:         0.6
 (Enter /share/apps/g09RelE.01/g09/l702.exe)
 L702 exits ... SP integral derivatives will be done elsewhere.
 Leave Link  702 at Thu Mar  9 15:12:47 2017, MaxMem=   845807616 cpu:         0.1
 (Enter /share/apps/g09RelE.01/g09/l703.exe)
 Compute integral first derivatives, UseDBF=F ICtDFT=           0.
 Integral derivatives from FoFJK, PRISM(SPDF).
 Calling FoFJK, ICntrl=      2127 FMM=F ISym2X=1 I1Cent= 0 IOpClX= 0 NMat=1 NMatS=1 NMatT=0.
 FoFJK:  IHMeth= 1 ICntrl=    2127 DoSepK=T KAlg= 0 I1Cent=   0 FoldK=F
 IRaf=         1 NMat=   1 IRICut=       1 DoRegI=T DoRafI=F ISym2E= 1.
 FoFCou: FMM=F IPFlag=           0 FMFlag=      100000 FMFlg1=         800
         NFxFlg=           0 DoJE=F BraDBF=F KetDBF=F FulRan=T
         wScrn=  0.000000 ICntrl=    2527 IOpCl=  0 I1Cent=           0 NGrid=           0
         NMat0=    1 NMatS0=      1 NMatT0=    0 NMatD0=    1 NMtDS0=    0 NMtDT0=    0
 Petite list used in FoFCou.
 Leave Link  703 at Thu Mar  9 15:12:50 2017, MaxMem=   845807616 cpu:        13.8
 (Enter /share/apps/g09RelE.01/g09/l716.exe)
 Dipole        =-7.43563217D-02-8.97882811D-02 2.22044605D-16
 ***** Axes restored to original set *****
 -------------------------------------------------------------------
 Center     Atomic                   Forces (Hartrees/Bohr)
 Number     Number              X              Y              Z
 -------------------------------------------------------------------
      1        5          -0.004800745   -0.006457292    0.000000000
      2        7           0.004603906    0.006177802    0.000000000
      3        7          -0.003193550   -0.004322892   -0.000000000
      4        5           0.003579956    0.004264187   -0.000000000
      5        1          -0.000068755   -0.000037664    0.000023798
      6        1          -0.000068755   -0.000037664   -0.000023798
      7        1          -0.000066567    0.000046758    0.000034184
      8        1          -0.000066567    0.000046758   -0.000034184
      9        1           0.000058536    0.000096428   -0.000027614
     10        1           0.000058536    0.000096428    0.000027614
     11        1          -0.000017998    0.000063576    0.000020053
     12        1          -0.000017998    0.000063576   -0.000020053
 -------------------------------------------------------------------
 Cartesian Forces:  Max     0.006457292 RMS     0.002261121
 Leave Link  716 at Thu Mar  9 15:12:50 2017, MaxMem=   845807616 cpu:         0.1
 (Enter /share/apps/g09RelE.01/g09/l103.exe)

 GradGradGradGradGradGradGradGradGradGradGradGradGradGradGradGradGradGrad
 Berny optimization.
 FormGI is forming the generalized inverse of G from B-inverse, IUseBI=4.
 Internal  Forces:  Max     0.007621467 RMS     0.001137172
 Search for a local minimum.
 Step number   1 out of a maximum of   82 on scan point     1 out of     2
 All quantities printed in internal units (Hartrees-Bohrs-Radians)
 RMS Force = .32416D-04 SwitMx=.10000D-02 MixMth= 2
 Mixed Optimization -- En-DIIS/RFO-DIIS
 Second derivative matrix not updated -- first step.
 ITU=  0
     Eigenvalues ---    0.00522   0.02566   0.03286   0.03568   0.04198
     Eigenvalues ---    0.04451   0.04650   0.04788   0.06543   0.07024
     Eigenvalues ---    0.07245   0.07432   0.07514   0.07781   0.07810
     Eigenvalues ---    0.08422   0.08977   0.21700   0.24815   0.24815
     Eigenvalues ---    0.25030   0.25030   0.33891   0.36146   0.46384
     Eigenvalues ---    0.46384   0.46499   0.464991000.000001000.00000
     Eigenvalues --- 1000.000001000.000001000.000001000.000001000.00000
     Eigenvalues --- 1000.000001000.000001000.000001000.000001000.00000
     Eigenvalues --- 1000.000001000.000001000.000001000.000001000.00000
     Eigenvalues --- 1000.000001000.000001000.000001000.000001000.00000
     Eigenvalues --- 1000.000001000.000001000.000001000.000001000.00000
     Eigenvalues --- 1000.000001000.000001000.000001000.000001000.00000
     Eigenvalues --- 1000.000001000.000001000.000001000.000001000.00000
     Eigenvalues --- 1000.000001000.000001000.000001000.000001000.00000
     Eigenvalues --- 1000.000001000.00000
 RFO step:  Lambda=-8.82197820D-07 EMin= 5.22074508D-03
 Linear search not attempted -- first point.
 Iteration  1 RMS(Cart)=  0.00030106 RMS(Int)=  0.00000021
 Iteration  2 RMS(Cart)=  0.00000015 RMS(Int)=  0.00000016
 Iteration  1 RMS(Cart)=  0.00000001 RMS(Int)=  0.00000000
 ITry= 1 IFail=0 DXMaxC= 8.05D-04 DCOld= 1.00D+10 DXMaxT= 3.00D-01 DXLimC= 3.00D+00 Rises=F
 ClnCor:  largest displacement from symmetrization is 2.34D-12 for atom     8.
 Variable       Old X    -DE/DX   Delta X   Delta X   Delta X     New X
                                 (Linear)    (Quad)   (Total)
    R1        4.16297  -0.00762   0.00000   0.00000  -0.00000   4.16297
    R2        2.76828   0.00006   0.00000   0.00008   0.00008   2.76836
    R3        2.25832   0.00001   0.00000   0.00005   0.00005   2.25837
    R4        2.25832   0.00001   0.00000   0.00005   0.00005   2.25837
    R5        2.77524   0.00004   0.00000   0.00026   0.00026   2.77550
    R6        1.90272  -0.00001   0.00000  -0.00002  -0.00002   1.90271
    R7        1.90272  -0.00001   0.00000  -0.00002  -0.00002   1.90271
    R8        3.97400  -0.00586   0.00000   0.00000   0.00000   3.97400
    R9        1.90401  -0.00002   0.00000  -0.00004  -0.00004   1.90398
   R10        1.90401  -0.00002   0.00000  -0.00004  -0.00004   1.90398
   R11        2.26380  -0.00001   0.00000  -0.00004  -0.00004   2.26376
   R12        2.26380  -0.00001   0.00000  -0.00004  -0.00004   2.26376
    A1        1.64138   0.00029   0.00000  -0.00007  -0.00007   1.64130
    A2        1.69618  -0.00009   0.00000   0.00036   0.00036   1.69654
    A3        1.69618  -0.00009   0.00000   0.00036   0.00036   1.69654
    A4        2.05704  -0.00001   0.00000   0.00017   0.00017   2.05721
    A5        2.05704  -0.00001   0.00000   0.00017   0.00017   2.05721
    A6        2.10954  -0.00002   0.00000  -0.00058  -0.00058   2.10897
    A7        1.43191   0.00035   0.00000   0.00008   0.00008   1.43199
    A8        1.90289  -0.00017   0.00000  -0.00091  -0.00091   1.90198
    A9        1.90289  -0.00017   0.00000  -0.00091  -0.00091   1.90198
   A10        2.08734  -0.00006   0.00000   0.00031   0.00031   2.08765
   A11        2.08734  -0.00006   0.00000   0.00031   0.00031   2.08765
   A12        1.95714   0.00010   0.00000   0.00040   0.00039   1.95753
   A13        1.49698  -0.00025   0.00000   0.00012   0.00012   1.49710
   A14        2.08318   0.00004   0.00000  -0.00001  -0.00001   2.08317
   A15        2.08318   0.00004   0.00000  -0.00001  -0.00001   2.08317
   A16        1.88079   0.00007   0.00000  -0.00048  -0.00048   1.88030
   A17        1.88079   0.00007   0.00000  -0.00048  -0.00048   1.88030
   A18        1.95401  -0.00001   0.00000   0.00048   0.00048   1.95450
   A19        1.71293  -0.00039   0.00000  -0.00014  -0.00014   1.71279
   A20        2.05020   0.00000   0.00000  -0.00046  -0.00046   2.04975
   A21        2.05020   0.00000   0.00000  -0.00046  -0.00046   2.04975
   A22        1.70145   0.00015   0.00000   0.00017   0.00017   1.70162
   A23        1.70145   0.00015   0.00000   0.00017   0.00017   1.70162
   A24        2.09023   0.00003   0.00000   0.00082   0.00082   2.09105
    D1        0.00000  -0.00000   0.00000  -0.00000   0.00000   0.00000
    D2       -2.07065  -0.00004   0.00000  -0.00033  -0.00033  -2.07098
    D3        2.07065   0.00004   0.00000   0.00033   0.00033   2.07098
    D4        2.07270   0.00003   0.00000   0.00022   0.00022   2.07291
    D5        0.00205  -0.00002   0.00000  -0.00012  -0.00012   0.00193
    D6       -2.13984   0.00007   0.00000   0.00055   0.00055  -2.13929
    D7       -2.07270  -0.00003   0.00000  -0.00022  -0.00022  -2.07291
    D8        2.13984  -0.00007   0.00000  -0.00055  -0.00055   2.13929
    D9       -0.00205   0.00002   0.00000   0.00012   0.00012  -0.00193
   D10        0.00000   0.00000   0.00000   0.00000   0.00000   0.00000
   D11       -1.88531   0.00006   0.00000   0.00049   0.00049  -1.88482
   D12        1.88531  -0.00006   0.00000  -0.00049  -0.00049   1.88482
   D13       -1.75094  -0.00005   0.00000  -0.00041  -0.00041  -1.75134
   D14        2.64694   0.00001   0.00000   0.00008   0.00008   2.64702
   D15        0.13437  -0.00011   0.00000  -0.00089  -0.00089   0.13348
   D16        1.75094   0.00005   0.00000   0.00041   0.00041   1.75134
   D17       -0.13437   0.00011   0.00000   0.00089   0.00089  -0.13348
   D18       -2.64694  -0.00001   0.00000  -0.00008  -0.00008  -2.64702
   D19        0.00000   0.00000   0.00000   0.00000   0.00000   0.00000
   D20        1.79540  -0.00004   0.00000  -0.00000  -0.00000   1.79540
   D21       -1.79540   0.00004   0.00000   0.00000   0.00000  -1.79540
   D22        1.87464  -0.00000   0.00000  -0.00099  -0.00099   1.87365
   D23       -2.61314  -0.00004   0.00000  -0.00099  -0.00099  -2.61413
   D24        0.07924   0.00004   0.00000  -0.00099  -0.00099   0.07825
   D25       -1.87464   0.00000   0.00000   0.00099   0.00099  -1.87365
   D26       -0.07924  -0.00004   0.00000   0.00099   0.00099  -0.07825
   D27        2.61314   0.00004   0.00000   0.00099   0.00099   2.61413
   D28        0.00000  -0.00000   0.00000  -0.00000   0.00000   0.00000
   D29       -2.08146   0.00005   0.00000   0.00046   0.00046  -2.08100
   D30        2.08146  -0.00005   0.00000  -0.00046  -0.00046   2.08100
   D31        2.08576  -0.00003   0.00000  -0.00001  -0.00001   2.08575
   D32        0.00430   0.00002   0.00000   0.00045   0.00045   0.00475
   D33       -2.11596  -0.00008   0.00000  -0.00048  -0.00048  -2.11644
   D34       -2.08576   0.00003   0.00000   0.00001   0.00001  -2.08575
   D35        2.11596   0.00008   0.00000   0.00048   0.00048   2.11644
   D36       -0.00430  -0.00002   0.00000  -0.00045  -0.00045  -0.00475
         Item               Value     Threshold  Converged?
 Maximum Force            0.000081     0.002500     YES
 RMS     Force            0.000032     0.001667     YES
 Maximum Displacement     0.000805     0.010000     YES
 RMS     Displacement     0.000301     0.006667     YES
 Predicted change in Energy=-4.410871D-07
 Optimization completed.
    -- Stationary point found.
                           ----------------------------
                           !   Optimized Parameters   !
                           ! (Angstroms and Degrees)  !
 --------------------------                            --------------------------
 ! Name  Definition              Value          Derivative Info.                !
 --------------------------------------------------------------------------------
 ! R1    R(1,2)                  2.2029         -DE/DX =   -0.0076              !
 ! R2    R(1,3)                  1.4649         -DE/DX =    0.0001              !
 ! R3    R(1,11)                 1.1951         -DE/DX =    0.0                 !
 ! R4    R(1,12)                 1.1951         -DE/DX =    0.0                 !
 ! R5    R(2,4)                  1.4686         -DE/DX =    0.0                 !
 ! R6    R(2,9)                  1.0069         -DE/DX =    0.0                 !
 ! R7    R(2,10)                 1.0069         -DE/DX =    0.0                 !
 ! R8    R(3,4)                  2.103          -DE/DX =   -0.0059              !
 ! R9    R(3,5)                  1.0076         -DE/DX =    0.0                 !
 ! R10   R(3,6)                  1.0076         -DE/DX =    0.0                 !
 ! R11   R(4,7)                  1.198          -DE/DX =    0.0                 !
 ! R12   R(4,8)                  1.198          -DE/DX =    0.0                 !
 ! A1    A(2,1,3)               94.044          -DE/DX =    0.0003              !
 ! A2    A(2,1,11)              97.1838         -DE/DX =   -0.0001              !
 ! A3    A(2,1,12)              97.1838         -DE/DX =   -0.0001              !
 ! A4    A(3,1,11)             117.8597         -DE/DX =    0.0                 !
 ! A5    A(3,1,12)             117.8597         -DE/DX =    0.0                 !
 ! A6    A(11,1,12)            120.868          -DE/DX =    0.0                 !
 ! A7    A(1,2,4)               82.0422         -DE/DX =    0.0004              !
 ! A8    A(1,2,9)              109.0278         -DE/DX =   -0.0002              !
 ! A9    A(1,2,10)             109.0278         -DE/DX =   -0.0002              !
 ! A10   A(4,2,9)              119.5958         -DE/DX =   -0.0001              !
 ! A11   A(4,2,10)             119.5958         -DE/DX =   -0.0001              !
 ! A12   A(9,2,10)             112.1359         -DE/DX =    0.0001              !
 ! A13   A(1,3,4)               85.7704         -DE/DX =   -0.0003              !
 ! A14   A(1,3,5)              119.3572         -DE/DX =    0.0                 !
 ! A15   A(1,3,6)              119.3572         -DE/DX =    0.0                 !
 ! A16   A(4,3,5)              107.7612         -DE/DX =    0.0001              !
 ! A17   A(4,3,6)              107.7612         -DE/DX =    0.0001              !
 ! A18   A(5,3,6)              111.9567         -DE/DX =    0.0                 !
 ! A19   A(2,4,3)               98.1435         -DE/DX =   -0.0004              !
 ! A20   A(2,4,7)              117.468          -DE/DX =    0.0                 !
 ! A21   A(2,4,8)              117.468          -DE/DX =    0.0                 !
 ! A22   A(3,4,7)               97.486          -DE/DX =    0.0002              !
 ! A23   A(3,4,8)               97.486          -DE/DX =    0.0002              !
 ! A24   A(7,4,8)              119.7613         -DE/DX =    0.0                 !
 ! D1    D(3,1,2,4)              0.0            -DE/DX =    0.0                 !
 ! D2    D(3,1,2,9)           -118.6393         -DE/DX =    0.0                 !
 ! D3    D(3,1,2,10)           118.6393         -DE/DX =    0.0                 !
 ! D4    D(11,1,2,4)           118.7568         -DE/DX =    0.0                 !
 ! D5    D(11,1,2,9)             0.1175         -DE/DX =    0.0                 !
 ! D6    D(11,1,2,10)         -122.604          -DE/DX =    0.0001              !
 ! D7    D(12,1,2,4)          -118.7568         -DE/DX =    0.0                 !
 ! D8    D(12,1,2,9)           122.604          -DE/DX =   -0.0001              !
 ! D9    D(12,1,2,10)           -0.1175         -DE/DX =    0.0                 !
 ! D10   D(2,1,3,4)              0.0            -DE/DX =    0.0                 !
 ! D11   D(2,1,3,5)           -108.0203         -DE/DX =    0.0001              !
 ! D12   D(2,1,3,6)            108.0203         -DE/DX =   -0.0001              !
 ! D13   D(11,1,3,4)          -100.3214         -DE/DX =   -0.0001              !
 ! D14   D(11,1,3,5)           151.6582         -DE/DX =    0.0                 !
 ! D15   D(11,1,3,6)             7.6989         -DE/DX =   -0.0001              !
 ! D16   D(12,1,3,4)           100.3214         -DE/DX =    0.0001              !
 ! D17   D(12,1,3,5)            -7.6989         -DE/DX =    0.0001              !
 ! D18   D(12,1,3,6)          -151.6582         -DE/DX =    0.0                 !
 ! D19   D(1,2,4,3)              0.0            -DE/DX =    0.0                 !
 ! D20   D(1,2,4,7)            102.869          -DE/DX =    0.0                 !
 ! D21   D(1,2,4,8)           -102.869          -DE/DX =    0.0                 !
 ! D22   D(9,2,4,3)            107.4091         -DE/DX =    0.0                 !
 ! D23   D(9,2,4,7)           -149.7219         -DE/DX =    0.0                 !
 ! D24   D(9,2,4,8)              4.5401         -DE/DX =    0.0                 !
 ! D25   D(10,2,4,3)          -107.4091         -DE/DX =    0.0                 !
 ! D26   D(10,2,4,7)            -4.5401         -DE/DX =    0.0                 !
 ! D27   D(10,2,4,8)           149.7219         -DE/DX =    0.0                 !
 ! D28   D(1,3,4,2)              0.0            -DE/DX =    0.0                 !
 ! D29   D(1,3,4,7)           -119.2591         -DE/DX =    0.0                 !
 ! D30   D(1,3,4,8)            119.2591         -DE/DX =    0.0                 !
 ! D31   D(5,3,4,2)            119.5055         -DE/DX =    0.0                 !
 ! D32   D(5,3,4,7)              0.2463         -DE/DX =    0.0                 !
 ! D33   D(5,3,4,8)           -121.2354         -DE/DX =   -0.0001              !
 ! D34   D(6,3,4,2)           -119.5055         -DE/DX =    0.0                 !
 ! D35   D(6,3,4,7)            121.2354         -DE/DX =    0.0001              !
 ! D36   D(6,3,4,8)             -0.2463         -DE/DX =    0.0                 !
 --------------------------------------------------------------------------------
 Lowest energy point so far.  Saving SCF results.
 Iteration  1 RMS(Cart)=  0.02734694 RMS(Int)=  0.00827293
 Iteration  2 RMS(Cart)=  0.00010068 RMS(Int)=  0.00827261
 Iteration  3 RMS(Cart)=  0.00000041 RMS(Int)=  0.00827261
 Iteration  1 RMS(Cart)=  0.00534630 RMS(Int)=  0.00228256
 Iteration  2 RMS(Cart)=  0.00147517 RMS(Int)=  0.00250019
 Iteration  3 RMS(Cart)=  0.00040703 RMS(Int)=  0.00262767
 Iteration  4 RMS(Cart)=  0.00011231 RMS(Int)=  0.00266700
 Iteration  5 RMS(Cart)=  0.00003099 RMS(Int)=  0.00267815
 Iteration  6 RMS(Cart)=  0.00000855 RMS(Int)=  0.00268125
 Iteration  7 RMS(Cart)=  0.00000236 RMS(Int)=  0.00268210
 Iteration  8 RMS(Cart)=  0.00000065 RMS(Int)=  0.00268234
 GradGradGradGradGradGradGradGradGradGradGradGradGradGradGradGradGradGrad

 Leave Link  103 at Thu Mar  9 15:12:51 2017, MaxMem=   845807616 cpu:         0.1
 (Enter /share/apps/g09RelE.01/g09/l202.exe)
                          Input orientation:                          
 ---------------------------------------------------------------------
 Center     Atomic      Atomic             Coordinates (Angstroms)
 Number     Number       Type             X           Y           Z
 ---------------------------------------------------------------------
      1          5           0        0.033097    1.260777   -0.000000
      2          7           0       -1.286175   -0.503453   -0.000000
      3          7           0        1.294335    0.511956    0.000000
      4          5           0       -0.025055   -1.252186   -0.000000
      5          1           0        1.859824    0.486530    0.833500
      6          1           0        1.859824    0.486530   -0.833500
      7          1           0        0.334494   -1.735687    1.035373
      8          1           0        0.334494   -1.735687   -1.035373
      9          1           0       -1.844979   -0.480454   -0.837258
     10          1           0       -1.844979   -0.480454    0.837258
     11          1           0       -0.345323    1.711281   -1.040224
     12          1           0       -0.345323    1.711281    1.040224
 ---------------------------------------------------------------------
                    Distance matrix (angstroms):
                    1          2          3          4          5
     1  B    0.000000
     2  N    2.202950   0.000000
     3  N    1.466784   2.773101   0.000000
     4  B    2.513636   1.466637   2.202950   0.000000
     5  H    2.152002   3.401779   1.007544   2.696410   0.000000
     6  H    2.152002   3.401779   1.007544   2.696410   1.667000
     7  H    3.184594   2.284068   2.654278   1.197934   2.702894
     8  H    3.184594   2.284068   2.654278   1.197934   3.279873
     9  H    2.694450   1.006872   3.397231   2.146787   4.177566
    10  H    2.694450   1.006872   3.397231   2.146787   3.828921
    11  H    1.195083   2.621510   2.282308   3.157020   3.142218
    12  H    1.195083   2.621510   2.282308   3.157020   2.530894
                    6          7          8          9         10
     6  H    0.000000
     7  H    3.279873   0.000000
     8  H    2.702894   2.070747   0.000000
     9  H    3.828921   3.135675   2.522887   0.000000
    10  H    4.177566   2.522887   3.135675   1.674516   0.000000
    11  H    2.530894   4.080667   3.513369   2.663431   3.252324
    12  H    3.142218   3.513369   4.080667   3.252324   2.663431
                   11         12
    11  H    0.000000
    12  H    2.080449   0.000000
 Stoichiometry    B2H8N2
 Framework group  CS[SG(B2N2),X(H8)]
 Deg. of freedom    17
 Full point group                 CS      NOp   2
 RotChk:  IX=0 Diff= 3.20D-02
 Largest Abelian subgroup         CS      NOp   2
 Largest concise Abelian subgroup CS      NOp   2
                         Standard orientation:                         
 ---------------------------------------------------------------------
 Center     Atomic      Atomic             Coordinates (Angstroms)
 Number     Number       Type             X           Y           Z
 ---------------------------------------------------------------------
      1          5           0       -0.001355   -1.259073    0.000000
      2          7           0        1.277716    0.534517    0.000000
      3          7           0       -1.279192   -0.538941    0.000000
      4          5           0       -0.000000    1.254563    0.000000
      5          1           0       -1.845110   -0.526299    0.833500
      6          1           0       -1.845110   -0.526299   -0.833500
      7          1           0       -0.370382    1.729816    1.035373
      8          1           0       -0.370382    1.729816   -1.035373
      9          1           0        1.836897    0.524151   -0.837258
     10          1           0        1.836897    0.524151    0.837258
     11          1           0        0.387148   -1.700911   -1.040224
     12          1           0        0.387148   -1.700911    1.040224
 ---------------------------------------------------------------------
 Rotational constants (GHZ):     11.3688974      5.8972471      4.3627348
 Leave Link  202 at Thu Mar  9 15:12:51 2017, MaxMem=   845807616 cpu:         0.0
 (Enter /share/apps/g09RelE.01/g09/l301.exe)
 Standard basis: 6-311G(d,p) (5D, 7F)
 Ernie: Thresh=  0.10000D-02 Tol=  0.10000D-05 Strict=F.
 There are    80 symmetry adapted cartesian basis functions of A'  symmetry.
 There are    44 symmetry adapted cartesian basis functions of A"  symmetry.
 There are    76 symmetry adapted basis functions of A'  symmetry.
 There are    44 symmetry adapted basis functions of A"  symmetry.
   120 basis functions,   192 primitive gaussians,   124 cartesian basis functions
    16 alpha electrons       16 beta electrons
       nuclear repulsion energy       114.0765406040 Hartrees.
 IExCor= 4639 DFT=T Ex+Corr=wB97XD ExCW=0 ScaHFX=  1.000000
 ScaDFX=  1.000000  1.000000  1.000000  1.000000 ScalE2=  1.000000  1.000000
 IRadAn=      5 IRanWt=     -1 IRanGd=            0 ICorTp=0 IEmpDi=121
  HFx wShort=  0.000000 wLong=  0.200000 cFull=  0.222036 cShort=  0.000000 cLong=  0.777964
  DFx wShort=  0.000000 wLong=  0.200000 cFull=  0.000000 cShort=  0.000000 cLong=  1.000000
 NAtoms=   12 NActive=   12 NUniq=    8 SFac= 2.25D+00 NAtFMM=   60 NAOKFM=F Big=F
 Integral buffers will be    131072 words long.
 Raffenetti 2 integral format.
 Two-electron integral symmetry is turned on.
 R6Disp:  Grimme-D2 Dispersion energy=       -0.0055571026 Hartrees.
 Nuclear repulsion after empirical dispersion term =      114.0709835015 Hartrees.
 Leave Link  301 at Thu Mar  9 15:12:51 2017, MaxMem=   845807616 cpu:         0.2
 (Enter /share/apps/g09RelE.01/g09/l302.exe)
 NPDir=0 NMtPBC=     1 NCelOv=     1 NCel=       1 NClECP=     1 NCelD=      1
         NCelK=      1 NCelE2=     1 NClLst=     1 CellRange=     0.0.
 One-electron integrals computed using PRISM.
 One-electron integral symmetry used in STVInt
 NBasis=   120 RedAO= T EigKep=  5.98D-03  NBF=    76    44
 NBsUse=   120 1.00D-06 EigRej= -1.00D+00 NBFU=    76    44
 Precomputing XC quadrature grid using
 IXCGrd= 4 IRadAn=           5 IRanWt=          -1 IRanGd=           0 AccXCQ= 0.00D+00.
 Generated NRdTot=       0 NPtTot=           0 NUsed=           0 NTot=          32
 NSgBfM=   124   124   124   124   124 MxSgAt=    12 MxSgA2=    12.
 Leave Link  302 at Thu Mar  9 15:12:51 2017, MaxMem=   845807616 cpu:         0.9
 (Enter /share/apps/g09RelE.01/g09/l303.exe)
 DipDrv:  MaxL=1.
 Leave Link  303 at Thu Mar  9 15:12:51 2017, MaxMem=   845807616 cpu:         0.1
 (Enter /share/apps/g09RelE.01/g09/l401.exe)
 Initial guess from the checkpoint file:  "AB-AB-NHscan.chk"
 B after Tr=    -0.000000   -0.000000   -0.000000
         Rot=    0.999929   -0.000000   -0.000000   -0.011947 Ang=  -1.37 deg.
 Guess basis will be translated and rotated to current coordinates.
 JPrj=2 DoOrth=T DoCkMO=T.
 Initial guess orbital symmetries:
       Occupied  (A') (A') (A') (A') (A') (A') (A') (A") (A') (A")
                 (A') (A') (A') (A") (A") (A')
       Virtual   (A') (A') (A') (A') (A') (A') (A') (A') (A') (A')
                 (A') (A') (A') (A') (A') (A') (A') (A') (A') (A')
                 (A') (A') (A') (A') (A') (A') (A') (A') (A') (A')
                 (A') (A') (A') (A') (A') (A') (A') (A') (A') (A')
                 (A') (A') (A') (A') (A') (A') (A') (A') (A') (A')
                 (A') (A') (A') (A') (A') (A') (A') (A') (A') (A')
                 (A') (A') (A') (A') (A") (A") (A") (A") (A") (A")
                 (A") (A") (A") (A") (A") (A") (A") (A") (A") (A")
                 (A") (A") (A") (A") (A") (A") (A") (A") (A") (A")
                 (A") (A") (A") (A") (A") (A") (A") (A") (A") (A")
                 (A") (A") (A") (A")
 The electronic state of the initial guess is 1-A'.
 Generating alternative initial guess.
 ExpMin= 9.89D-02 ExpMax= 6.29D+03 ExpMxC= 9.49D+02 IAcc=2 IRadAn=         4 AccDes= 0.00D+00
 Harris functional with IExCor= 4639 and IRadAn=       4 diagonalized for initial guess.
 HarFok:  IExCor= 4639 AccDes= 0.00D+00 IRadAn=         4 IDoV= 1 UseB2=F ITyADJ=14
 ICtDFT=  3500011 ScaDFX=  1.000000  1.000000  1.000000  1.000000
 FoFCou: FMM=F IPFlag=           0 FMFlag=      100000 FMFlg1=           0
         NFxFlg=           0 DoJE=T BraDBF=F KetDBF=T FulRan=T
         wScrn=  0.000000 ICntrl=     500 IOpCl=  0 I1Cent=   200000004 NGrid=           0
         NMat0=    1 NMatS0=      1 NMatT0=    0 NMatD0=    1 NMtDS0=    0 NMtDT0=    0
 Petite list used in FoFCou.
 Harris En= -156.188240141860    
 Leave Link  401 at Thu Mar  9 15:12:52 2017, MaxMem=   845807616 cpu:         2.1
 (Enter /share/apps/g09RelE.01/g09/l502.exe)
 Closed shell SCF:
 Using DIIS extrapolation, IDIIS=  1040.
 Integral symmetry usage will be decided dynamically.
 Keep R1 ints in memory in symmetry-blocked form, NReq=79321962.
 IVT=       66538 IEndB=       66538 NGot=   845807616 MDV=   832462961
 LenX=   832462961 LenY=   832447144
 Requested convergence on RMS density matrix=1.00D-08 within 128 cycles.
 Requested convergence on MAX density matrix=1.00D-06.
 Requested convergence on             energy=1.00D-06.
 No special actions if energy rises.
 FoFCou: FMM=F IPFlag=           0 FMFlag=           0 FMFlg1=           0
         NFxFlg=           0 DoJE=F BraDBF=F KetDBF=F FulRan=T
         wScrn=  0.000000 ICntrl=     600 IOpCl=  0 I1Cent=           0 NGrid=           0
         NMat0=    1 NMatS0=   7260 NMatT0=    0 NMatD0=    1 NMtDS0=    0 NMtDT0=    0
 Petite list used in FoFCou.
 Integral accuracy reduced to 1.0D-05 until final iterations.

 Cycle   1  Pass 0  IDiag  1:
 E= -164.061210089018    
 DIIS: error= 2.74D-03 at cycle   1 NSaved=   1.
 NSaved= 1 IEnMin= 1 EnMin= -164.061210089018     IErMin= 1 ErrMin= 2.74D-03
 ErrMax= 2.74D-03  0.00D+00 EMaxC= 1.00D-01 BMatC= 6.38D-04 BMatP= 6.38D-04
 IDIUse=3 WtCom= 9.73D-01 WtEn= 2.74D-02
 Coeff-Com:  0.100D+01
 Coeff-En:   0.100D+01
 Coeff:      0.100D+01
 Gap=     0.762 Goal=   None    Shift=    0.000
 GapD=    0.762 DampG=2.000 DampE=1.000 DampFc=2.0000 IDamp=-1.
 RMSDP=2.55D-04 MaxDP=4.72D-03              OVMax= 1.42D-02

 Cycle   2  Pass 0  IDiag  1:
 E= -164.062462151867     Delta-E=       -0.001252062849 Rises=F Damp=F
 DIIS: error= 8.87D-04 at cycle   2 NSaved=   2.
 NSaved= 2 IEnMin= 2 EnMin= -164.062462151867     IErMin= 2 ErrMin= 8.87D-04
 ErrMax= 8.87D-04  0.00D+00 EMaxC= 1.00D-01 BMatC= 4.35D-05 BMatP= 6.38D-04
 IDIUse=3 WtCom= 9.91D-01 WtEn= 8.87D-03
 Coeff-Com: -0.119D+00 0.112D+01
 Coeff-En:   0.000D+00 0.100D+01
 Coeff:     -0.118D+00 0.112D+01
 Gap=     0.407 Goal=   None    Shift=    0.000
 RMSDP=8.66D-05 MaxDP=1.06D-03 DE=-1.25D-03 OVMax= 6.54D-03

 Cycle   3  Pass 0  IDiag  1:
 E= -164.062573021255     Delta-E=       -0.000110869388 Rises=F Damp=F
 DIIS: error= 5.22D-04 at cycle   3 NSaved=   3.
 NSaved= 3 IEnMin= 3 EnMin= -164.062573021255     IErMin= 3 ErrMin= 5.22D-04
 ErrMax= 5.22D-04  0.00D+00 EMaxC= 1.00D-01 BMatC= 1.92D-05 BMatP= 4.35D-05
 IDIUse=3 WtCom= 9.95D-01 WtEn= 5.22D-03
 Coeff-Com: -0.989D-01 0.455D+00 0.643D+00
 Coeff-En:   0.000D+00 0.000D+00 0.100D+01
 Coeff:     -0.984D-01 0.453D+00 0.645D+00
 Gap=     0.407 Goal=   None    Shift=    0.000
 RMSDP=3.02D-05 MaxDP=7.77D-04 DE=-1.11D-04 OVMax= 2.28D-03

 Cycle   4  Pass 0  IDiag  1:
 E= -164.062593618577     Delta-E=       -0.000020597321 Rises=F Damp=F
 DIIS: error= 1.75D-04 at cycle   4 NSaved=   4.
 NSaved= 4 IEnMin= 4 EnMin= -164.062593618577     IErMin= 4 ErrMin= 1.75D-04
 ErrMax= 1.75D-04  0.00D+00 EMaxC= 1.00D-01 BMatC= 2.02D-06 BMatP= 1.92D-05
 IDIUse=3 WtCom= 9.98D-01 WtEn= 1.75D-03
 Coeff-Com: -0.521D-02-0.664D-01 0.193D+00 0.878D+00
 Coeff-En:   0.000D+00 0.000D+00 0.000D+00 0.100D+01
 Coeff:     -0.520D-02-0.663D-01 0.193D+00 0.879D+00
 Gap=     0.407 Goal=   None    Shift=    0.000
 RMSDP=1.82D-05 MaxDP=3.81D-04 DE=-2.06D-05 OVMax= 1.50D-03

 Cycle   5  Pass 0  IDiag  1:
 E= -164.062597833993     Delta-E=       -0.000004215417 Rises=F Damp=F
 DIIS: error= 6.47D-05 at cycle   5 NSaved=   5.
 NSaved= 5 IEnMin= 5 EnMin= -164.062597833993     IErMin= 5 ErrMin= 6.47D-05
 ErrMax= 6.47D-05  0.00D+00 EMaxC= 1.00D-01 BMatC= 1.30D-07 BMatP= 2.02D-06
 IDIUse=1 WtCom= 1.00D+00 WtEn= 0.00D+00
 Coeff-Com:  0.975D-02-0.587D-01-0.557D-01 0.956D-01 0.101D+01
 Coeff:      0.975D-02-0.587D-01-0.557D-01 0.956D-01 0.101D+01
 Gap=     0.407 Goal=   None    Shift=    0.000
 RMSDP=8.01D-06 MaxDP=1.47D-04 DE=-4.22D-06 OVMax= 7.37D-04

 Initial convergence to 1.0D-05 achieved.  Increase integral accuracy.
 Cycle   6  Pass 1  IDiag  1:
 E= -164.062600107497     Delta-E=       -0.000002273503 Rises=F Damp=F
 DIIS: error= 3.72D-05 at cycle   1 NSaved=   1.
 NSaved= 1 IEnMin= 1 EnMin= -164.062600107497     IErMin= 1 ErrMin= 3.72D-05
 ErrMax= 3.72D-05  0.00D+00 EMaxC= 1.00D-01 BMatC= 1.45D-07 BMatP= 1.45D-07
 IDIUse=1 WtCom= 1.00D+00 WtEn= 0.00D+00
 Coeff-Com:  0.100D+01
 Coeff:      0.100D+01
 Gap=     0.407 Goal=   None    Shift=    0.000
 RMSDP=8.01D-06 MaxDP=1.47D-04 DE=-2.27D-06 OVMax= 1.73D-04

 Cycle   7  Pass 1  IDiag  1:
 E= -164.062600294674     Delta-E=       -0.000000187177 Rises=F Damp=F
 DIIS: error= 9.51D-06 at cycle   2 NSaved=   2.
 NSaved= 2 IEnMin= 2 EnMin= -164.062600294674     IErMin= 2 ErrMin= 9.51D-06
 ErrMax= 9.51D-06  0.00D+00 EMaxC= 1.00D-01 BMatC= 5.80D-09 BMatP= 1.45D-07
 IDIUse=1 WtCom= 1.00D+00 WtEn= 0.00D+00
 Coeff-Com: -0.448D-01 0.104D+01
 Coeff:     -0.448D-01 0.104D+01
 Gap=     0.407 Goal=   None    Shift=    0.000
 RMSDP=1.13D-06 MaxDP=1.50D-05 DE=-1.87D-07 OVMax= 7.72D-05

 Cycle   8  Pass 1  IDiag  1:
 E= -164.062600307438     Delta-E=       -0.000000012764 Rises=F Damp=F
 DIIS: error= 4.07D-06 at cycle   3 NSaved=   3.
 NSaved= 3 IEnMin= 3 EnMin= -164.062600307438     IErMin= 3 ErrMin= 4.07D-06
 ErrMax= 4.07D-06  0.00D+00 EMaxC= 1.00D-01 BMatC= 1.65D-09 BMatP= 5.80D-09
 IDIUse=1 WtCom= 1.00D+00 WtEn= 0.00D+00
 Coeff-Com: -0.457D-01 0.306D+00 0.740D+00
 Coeff:     -0.457D-01 0.306D+00 0.740D+00
 Gap=     0.407 Goal=   None    Shift=    0.000
 RMSDP=3.70D-07 MaxDP=8.02D-06 DE=-1.28D-08 OVMax= 2.86D-05

 Cycle   9  Pass 1  IDiag  1:
 E= -164.062600309806     Delta-E=       -0.000000002368 Rises=F Damp=F
 DIIS: error= 2.43D-06 at cycle   4 NSaved=   4.
 NSaved= 4 IEnMin= 4 EnMin= -164.062600309806     IErMin= 4 ErrMin= 2.43D-06
 ErrMax= 2.43D-06  0.00D+00 EMaxC= 1.00D-01 BMatC= 3.34D-10 BMatP= 1.65D-09
 IDIUse=1 WtCom= 1.00D+00 WtEn= 0.00D+00
 Coeff-Com: -0.102D-01-0.277D-01 0.268D+00 0.770D+00
 Coeff:     -0.102D-01-0.277D-01 0.268D+00 0.770D+00
 Gap=     0.407 Goal=   None    Shift=    0.000
 RMSDP=1.90D-07 MaxDP=3.12D-06 DE=-2.37D-09 OVMax= 1.86D-05

 Cycle  10  Pass 1  IDiag  1:
 E= -164.062600310439     Delta-E=       -0.000000000633 Rises=F Damp=F
 DIIS: error= 1.17D-06 at cycle   5 NSaved=   5.
 NSaved= 5 IEnMin= 5 EnMin= -164.062600310439     IErMin= 5 ErrMin= 1.17D-06
 ErrMax= 1.17D-06  0.00D+00 EMaxC= 1.00D-01 BMatC= 4.58D-11 BMatP= 3.34D-10
 IDIUse=1 WtCom= 1.00D+00 WtEn= 0.00D+00
 Coeff-Com:  0.527D-02-0.623D-01-0.599D-01 0.213D+00 0.904D+00
 Coeff:      0.527D-02-0.623D-01-0.599D-01 0.213D+00 0.904D+00
 Gap=     0.407 Goal=   None    Shift=    0.000
 RMSDP=1.11D-07 MaxDP=1.57D-06 DE=-6.33D-10 OVMax= 1.15D-05

 Cycle  11  Pass 1  IDiag  1:
 E= -164.062600310589     Delta-E=       -0.000000000150 Rises=F Damp=F
 DIIS: error= 3.52D-07 at cycle   6 NSaved=   6.
 NSaved= 6 IEnMin= 6 EnMin= -164.062600310589     IErMin= 6 ErrMin= 3.52D-07
 ErrMax= 3.52D-07  0.00D+00 EMaxC= 1.00D-01 BMatC= 3.93D-12 BMatP= 4.58D-11
 IDIUse=1 WtCom= 1.00D+00 WtEn= 0.00D+00
 Coeff-Com:  0.202D-02-0.117D-02-0.478D-01-0.949D-01 0.937D-01 0.105D+01
 Coeff:      0.202D-02-0.117D-02-0.478D-01-0.949D-01 0.937D-01 0.105D+01
 Gap=     0.407 Goal=   None    Shift=    0.000
 RMSDP=4.76D-08 MaxDP=7.27D-07 DE=-1.50D-10 OVMax= 5.08D-06

 Cycle  12  Pass 1  IDiag  1:
 E= -164.062600310608     Delta-E=       -0.000000000019 Rises=F Damp=F
 DIIS: error= 6.97D-08 at cycle   7 NSaved=   7.
 NSaved= 7 IEnMin= 7 EnMin= -164.062600310608     IErMin= 7 ErrMin= 6.97D-08
 ErrMax= 6.97D-08  0.00D+00 EMaxC= 1.00D-01 BMatC= 1.80D-13 BMatP= 3.93D-12
 IDIUse=1 WtCom= 1.00D+00 WtEn= 0.00D+00
 Coeff-Com: -0.248D-03 0.447D-02 0.157D-02-0.188D-01-0.562D-01 0.272D-01
 Coeff-Com:  0.104D+01
 Coeff:     -0.248D-03 0.447D-02 0.157D-02-0.188D-01-0.562D-01 0.272D-01
 Coeff:      0.104D+01
 Gap=     0.407 Goal=   None    Shift=    0.000
 RMSDP=1.10D-08 MaxDP=1.67D-07 DE=-1.89D-11 OVMax= 1.01D-06

 Cycle  13  Pass 1  IDiag  1:
 E= -164.062600310609     Delta-E=       -0.000000000001 Rises=F Damp=F
 DIIS: error= 2.08D-08 at cycle   8 NSaved=   8.
 NSaved= 8 IEnMin= 8 EnMin= -164.062600310609     IErMin= 8 ErrMin= 2.08D-08
 ErrMax= 2.08D-08  0.00D+00 EMaxC= 1.00D-01 BMatC= 5.02D-14 BMatP= 1.80D-13
 IDIUse=1 WtCom= 1.00D+00 WtEn= 0.00D+00
 Coeff-Com: -0.248D-03 0.214D-02 0.391D-02-0.265D-02-0.313D-01-0.530D-01
 Coeff-Com:  0.419D+00 0.662D+00
 Coeff:     -0.248D-03 0.214D-02 0.391D-02-0.265D-02-0.313D-01-0.530D-01
 Coeff:      0.419D+00 0.662D+00
 Gap=     0.407 Goal=   None    Shift=    0.000
 RMSDP=1.98D-09 MaxDP=3.94D-08 DE=-6.82D-13 OVMax= 1.39D-07

 SCF Done:  E(RwB97XD) =  -164.062600311     A.U. after   13 cycles
            NFock= 13  Conv=0.20D-08     -V/T= 2.0050
 KE= 1.632422530317D+02 PE=-6.093570008940D+02 EE= 1.679811640502D+02
 Leave Link  502 at Thu Mar  9 15:13:03 2017, MaxMem=   845807616 cpu:        45.8
 (Enter /share/apps/g09RelE.01/g09/l701.exe)
 Compute integral first derivatives.
 ... and contract with generalized density number  0.
 R6Disp: Adding Grimme-D2 dispersion energy 1st derivatives to the gradient.
 Leave Link  701 at Thu Mar  9 15:13:03 2017, MaxMem=   845807616 cpu:         0.6
 (Enter /share/apps/g09RelE.01/g09/l702.exe)
 L702 exits ... SP integral derivatives will be done elsewhere.
 Leave Link  702 at Thu Mar  9 15:13:03 2017, MaxMem=   845807616 cpu:         0.1
 (Enter /share/apps/g09RelE.01/g09/l703.exe)
 Compute integral first derivatives, UseDBF=F ICtDFT=           0.
 Integral derivatives from FoFJK, PRISM(SPDF).
 Calling FoFJK, ICntrl=      2127 FMM=F ISym2X=1 I1Cent= 0 IOpClX= 0 NMat=1 NMatS=1 NMatT=0.
 FoFJK:  IHMeth= 1 ICntrl=    2127 DoSepK=T KAlg= 0 I1Cent=   0 FoldK=F
 IRaf=         1 NMat=   1 IRICut=       1 DoRegI=T DoRafI=F ISym2E= 1.
 FoFCou: FMM=F IPFlag=           0 FMFlag=      100000 FMFlg1=         800
         NFxFlg=           0 DoJE=F BraDBF=F KetDBF=F FulRan=T
         wScrn=  0.000000 ICntrl=    2527 IOpCl=  0 I1Cent=           0 NGrid=           0
         NMat0=    1 NMatS0=      1 NMatT0=    0 NMatD0=    1 NMtDS0=    0 NMtDT0=    0
 Petite list used in FoFCou.
 Leave Link  703 at Thu Mar  9 15:13:07 2017, MaxMem=   845807616 cpu:        14.2
 (Enter /share/apps/g09RelE.01/g09/l716.exe)
 Dipole        =-1.71328909D-02-2.52887031D-02 2.22044605D-16
 ***** Axes restored to original set *****
 -------------------------------------------------------------------
 Center     Atomic                   Forces (Hartrees/Bohr)
 Number     Number              X              Y              Z
 -------------------------------------------------------------------
      1        5           0.001725512   -0.006965188    0.000000000
      2        7           0.007810170    0.001230685    0.000000000
      3        7          -0.005442843   -0.002206288    0.000000000
      4        5          -0.003561225    0.002200626    0.000000000
      5        1          -0.000925909   -0.000401604    0.000421311
      6        1          -0.000925909   -0.000401604   -0.000421311
      7        1           0.001374903    0.002595785   -0.000085527
      8        1           0.001374903    0.002595785    0.000085527
      9        1          -0.000301259    0.000623476    0.000092297
     10        1          -0.000301259    0.000623476   -0.000092297
     11        1          -0.000413543    0.000052426   -0.000091390
     12        1          -0.000413543    0.000052426    0.000091390
 -------------------------------------------------------------------
 Cartesian Forces:  Max     0.007810170 RMS     0.002279290
 Leave Link  716 at Thu Mar  9 15:13:07 2017, MaxMem=   845807616 cpu:         0.1
 (Enter /share/apps/g09RelE.01/g09/l103.exe)

 GradGradGradGradGradGradGradGradGradGradGradGradGradGradGradGradGradGrad
 Berny optimization.
 FormGI is forming the generalized inverse of G from B-inverse, IUseBI=4.
 Internal  Forces:  Max     0.006621546 RMS     0.001365597
 Search for a local minimum.
 Step number   1 out of a maximum of   82 on scan point     2 out of     2
 All quantities printed in internal units (Hartrees-Bohrs-Radians)
 RMS Force = .95507D-03 SwitMx=.10000D-02 MixMth= 1
 Mixed Optimization -- RFO/linear search
 Second derivative matrix not updated -- first step.
 ITU=  0
     Eigenvalues ---    0.00512   0.02578   0.03294   0.03550   0.04266
     Eigenvalues ---    0.04458   0.04599   0.04774   0.06602   0.07036
     Eigenvalues ---    0.07289   0.07413   0.07434   0.07709   0.07853
     Eigenvalues ---    0.08516   0.08850   0.21700   0.24815   0.24815
     Eigenvalues ---    0.25030   0.25030   0.33973   0.36152   0.46384
     Eigenvalues ---    0.46384   0.46499   0.464991000.000001000.00000
     Eigenvalues --- 1000.000001000.000001000.000001000.000001000.00000
     Eigenvalues --- 1000.000001000.000001000.000001000.000001000.00000
     Eigenvalues --- 1000.000001000.000001000.000001000.000001000.00000
     Eigenvalues --- 1000.000001000.000001000.000001000.000001000.00000
     Eigenvalues --- 1000.000001000.000001000.000001000.000001000.00000
     Eigenvalues --- 1000.000001000.000001000.000001000.000001000.00000
     Eigenvalues --- 1000.000001000.000001000.000001000.000001000.00000
     Eigenvalues --- 1000.000001000.000001000.000001000.000001000.00000
     Eigenvalues --- 1000.000001000.00000
 RFO step:  Lambda=-5.10080437D-04 EMin= 5.12498787D-03
 Linear search not attempted -- first point.
 Iteration  1 RMS(Cart)=  0.00960823 RMS(Int)=  0.00019888
 Iteration  2 RMS(Cart)=  0.00013864 RMS(Int)=  0.00013935
 Iteration  3 RMS(Cart)=  0.00000002 RMS(Int)=  0.00013935
 Iteration  1 RMS(Cart)=  0.00000384 RMS(Int)=  0.00000164
 Iteration  2 RMS(Cart)=  0.00000107 RMS(Int)=  0.00000180
 Iteration  3 RMS(Cart)=  0.00000030 RMS(Int)=  0.00000189
 ITry= 1 IFail=0 DXMaxC= 4.00D-02 DCOld= 1.00D+10 DXMaxT= 3.00D-01 DXLimC= 3.00D+00 Rises=F
 ClnCor:  largest displacement from symmetrization is 7.50D-12 for atom    10.
[...]
 ! A23   A(3,4,8)               95.5671         -DE/DX =    0.0                 !
 ! A24   A(7,4,8)              120.7223         -DE/DX =   -0.0001              !
 ! D1    D(3,1,2,4)              0.0            -DE/DX =    0.0                 !
 ! D2    D(3,1,2,9)           -119.7442         -DE/DX =    0.0                 !
 ! D3    D(3,1,2,10)           119.7442         -DE/DX =    0.0                 !
 ! D4    D(11,1,2,4)           119.2461         -DE/DX =    0.0                 !
 ! D5    D(11,1,2,9)            -0.4981         -DE/DX =    0.0                 !
 ! D6    D(11,1,2,10)         -121.0097         -DE/DX =    0.0                 !
 ! D7    D(12,1,2,4)          -119.2461         -DE/DX =    0.0                 !
 ! D8    D(12,1,2,9)           121.0097         -DE/DX =    0.0                 !
 ! D9    D(12,1,2,10)            0.4981         -DE/DX =    0.0                 !
 ! D10   D(2,1,3,4)              0.0            -DE/DX =    0.0                 !
 ! D11   D(2,1,3,5)           -105.0261         -DE/DX =    0.0                 !
 ! D12   D(2,1,3,6)            105.0261         -DE/DX =    0.0                 !
 ! D13   D(11,1,3,4)          -100.2894         -DE/DX =    0.0                 !
 ! D14   D(11,1,3,5)           154.6845         -DE/DX =    0.0                 !
 ! D15   D(11,1,3,6)             4.7368         -DE/DX =    0.0                 !
 ! D16   D(12,1,3,4)           100.2894         -DE/DX =    0.0                 !
 ! D17   D(12,1,3,5)            -4.7368         -DE/DX =    0.0                 !
 ! D18   D(12,1,3,6)          -154.6845         -DE/DX =    0.0                 !
 ! D19   D(1,2,4,3)              0.0            -DE/DX =    0.0                 !
 ! D20   D(1,2,4,7)            100.2465         -DE/DX =    0.0                 !
 ! D21   D(1,2,4,8)           -100.2465         -DE/DX =    0.0                 !
 ! D22   D(9,2,4,3)            105.0291         -DE/DX =    0.0                 !
 ! D23   D(9,2,4,7)           -154.7244         -DE/DX =    0.0                 !
 ! D24   D(9,2,4,8)              4.7827         -DE/DX =   -0.0001              !
 ! D25   D(10,2,4,3)          -105.0291         -DE/DX =    0.0                 !
 ! D26   D(10,2,4,7)            -4.7827         -DE/DX =    0.0001              !
 ! D27   D(10,2,4,8)           154.7244         -DE/DX =    0.0                 !
 ! D28   D(1,3,4,2)              0.0            -DE/DX =    0.0                 !
 ! D29   D(1,3,4,7)           -119.1581         -DE/DX =    0.0                 !
 ! D30   D(1,3,4,8)            119.1581         -DE/DX =    0.0                 !
 ! D31   D(5,3,4,2)            119.7302         -DE/DX =    0.0                 !
 ! D32   D(5,3,4,7)              0.5721         -DE/DX =    0.0                 !
 ! D33   D(5,3,4,8)           -121.1117         -DE/DX =    0.0                 !
 ! D34   D(6,3,4,2)           -119.7302         -DE/DX =    0.0                 !
 ! D35   D(6,3,4,7)            121.1117         -DE/DX =    0.0                 !
 ! D36   D(6,3,4,8)             -0.5721         -DE/DX =    0.0                 !
 --------------------------------------------------------------------------------
 Lowest energy point so far.  Saving SCF results.
 GradGradGradGradGradGradGradGradGradGradGradGradGradGradGradGradGradGrad

 Summary of Optimized Potential Surface Scan
                           1         2
     Eigenvalues --  -164.06379-164.06313
           R1           2.20295   2.20295
           R2           1.46491   1.45144
           R3           1.19505   1.19602
           R4           1.19505   1.19602
           R5           1.46859   1.45171
           R6           1.00688   1.00656
           R7           1.00688   1.00656
           R8           2.10295   2.20295
           R9           1.00756   1.00654
           R10          1.00756   1.00654
           R11          1.19795   1.19593
           R12          1.19795   1.19593
           A1          94.04399  97.21948
           A2          97.18382  95.58436
           A3          97.18382  95.58436
           A4         117.85973 118.04462
           A5         117.85973 118.04462
           A6         120.86802 120.54375
           A7          82.04216  82.78188
           A8         109.02776 106.58442
           A9         109.02776 106.58442
           A10        119.59582 120.50308
           A11        119.59582 120.50308
           A12        112.13592 112.63634
           A13         85.77035  82.78748
           A14        119.35722 120.48831
           A15        119.35722 120.48831
           A16        107.76124 106.57939
           A17        107.76124 106.57939
           A18        111.95672 112.66489
           A19         98.14350  97.21115
           A20        117.46798 117.96357
           A21        117.46798 117.96357
           A22         97.48604  95.56708
           A23         97.48604  95.56708
           A24        119.76133 120.72225
           D1           0.00000   0.00000
           D2        -118.63926-119.74421
           D3         118.63926 119.74421
           D4         118.75678 119.24610
           D5           0.11752  -0.49810
           D6        -122.60395-121.00969
           D7        -118.75678-119.24610
           D8         122.60395 121.00969
           D9          -0.11752   0.49810
           D10          0.00000   0.00000
           D11       -108.02034-105.02611
           D12        108.02034 105.02611
           D13       -100.32142-100.28935
           D14        151.65825 154.68454
           D15          7.69892   4.73676
           D16        100.32142 100.28935
           D17         -7.69892  -4.73676
           D18       -151.65825-154.68454
           D19          0.00000   0.00000
           D20        102.86901 100.24647
           D21       -102.86901-100.24647
           D22        107.40909 105.02912
           D23       -149.72190-154.72441
           D24          4.54007   4.78265
           D25       -107.40909-105.02912
           D26         -4.54007  -4.78265
           D27        149.72190 154.72441
           D28          0.00000   0.00000
           D29       -119.25914-119.15810
           D30        119.25914 119.15810
           D31        119.50547 119.73018
           D32          0.24633   0.57208
           D33       -121.23540-121.11172
           D34       -119.50547-119.73018
           D35        121.23540 121.11172
           D36         -0.24633  -0.57208
 Largest change from initial coordinates is atom   11       0.085 Angstoms.
 Leave Link  103 at Thu Mar  9 15:14:12 2017, MaxMem=   845807616 cpu:         0.1
 (Enter /share/apps/g09RelE.01/g09/l202.exe)
                          Input orientation:                          
 ---------------------------------------------------------------------
 Center     Atomic      Atomic             Coordinates (Angstroms)
 Number     Number       Type             X           Y           Z
 ---------------------------------------------------------------------
      1          5           0        0.037307    1.238239   -0.000000
      2          7           0       -1.291482   -0.518835   -0.000000
      3          7           0        1.295825    0.515175   -0.000000
      4          5           0       -0.032750   -1.242061   -0.000000
      5          1           0        1.850648    0.455753    0.837708
      6          1           0        1.850648    0.455753   -0.837708
      7          1           0        0.359877   -1.684356    1.039450
      8          1           0        0.359877   -1.684356   -1.039450
      9          1           0       -1.846518   -0.459295   -0.837592
     10          1           0       -1.846518   -0.459295    0.837592
     11          1           0       -0.356341    1.681856   -1.038609
     12          1           0       -0.356341    1.681856    1.038609
 ---------------------------------------------------------------------
                    Distance matrix (angstroms):
                    1          2          3          4          5
     1  B    0.000000
     2  N    2.202950   0.000000
     3  N    1.451444   2.786275   0.000000
     4  B    2.481290   1.451710   2.202951   0.000000
     5  H    2.145285   3.394784   1.006536   2.670490   0.000000
     6  H    2.145285   3.394784   1.006536   2.670490   1.675416
     7  H    3.118665   2.272857   2.606605   1.195925   2.615945
     8  H    3.118665   2.272857   2.606605   1.195925   3.213439
     9  H    2.670576   1.006563   3.394918   2.145701   4.160887
    10  H    2.670576   1.006563   3.394918   2.145701   3.808720
    11  H    1.196020   2.606959   2.273654   3.119729   3.145583
    12  H    1.196020   2.606959   2.273654   3.119729   2.532684
                    6          7          8          9         10
     6  H    0.000000
     7  H    3.213439   0.000000
     8  H    2.615945   2.078899   0.000000
     9  H    3.808720   3.145193   2.531738   0.000000
    10  H    4.160887   2.531738   3.145193   1.675183   0.000000
    11  H    2.532684   4.020283   3.441562   2.616402   3.213298
    12  H    3.145583   3.441562   4.020283   3.213298   2.616402
                   11         12
    11  H    0.000000
    12  H    2.077219   0.000000
 Stoichiometry    B2H8N2
 Framework group  CS[SG(B2N2),X(H8)]
 Deg. of freedom    17
 Full point group                 CS      NOp   2
 RotChk:  IX=3 Diff= 2.40D-16
 Largest Abelian subgroup         CS      NOp   2
 Largest concise Abelian subgroup CS      NOp   2
                         Standard orientation:                         
 ---------------------------------------------------------------------
 Center     Atomic      Atomic             Coordinates (Angstroms)
 Number     Number       Type             X           Y           Z
 ---------------------------------------------------------------------
      1          5           0        0.000000   -1.240513    0.000000
      2          7           0        1.278445    0.553523    0.000000
      3          7           0       -1.278509   -0.553415    0.000000
      4          5           0       -0.000281    1.240777    0.000000
      5          1           0       -1.834795   -0.509745    0.837708
      6          1           0       -1.834795   -0.509745   -0.837708
      7          1           0       -0.405289    1.671764    1.039450
      8          1           0       -0.405289    1.671764   -1.039450
      9          1           0        1.834946    0.509741   -0.837592
     10          1           0        1.834946    0.509741    0.837592
     11          1           0        0.406065   -1.672792   -1.038609
     12          1           0        0.406065   -1.672792    1.038609
 ---------------------------------------------------------------------
 Rotational constants (GHZ):     11.5990816      5.9043745      4.4021344
 Leave Link  202 at Thu Mar  9 15:14:12 2017, MaxMem=   845807616 cpu:         0.0
 (Enter /share/apps/g09RelE.01/g09/l601.exe)
 Copying SCF densities to generalized density rwf, IOpCl= 0 IROHF=0.

 **********************************************************************

            Population analysis using the SCF density.

 **********************************************************************

 Orbital symmetries:
       Occupied  (A') (A') (A') (A') (A') (A') (A') (A") (A') (A")
                 (A') (A') (A') (A") (A") (A')
       Virtual   (A') (A') (A') (A") (A') (A") (A') (A') (A") (A')
                 (A") (A') (A") (A') (A') (A") (A') (A') (A') (A")
                 (A") (A') (A') (A') (A') (A") (A') (A") (A") (A')
                 (A') (A") (A') (A') (A') (A") (A") (A') (A') (A')
                 (A") (A") (A') (A') (A") (A") (A') (A') (A') (A")
                 (A") (A") (A') (A") (A') (A') (A") (A') (A") (A')
                 (A') (A') (A") (A") (A') (A") (A') (A') (A") (A')
                 (A') (A') (A') (A") (A') (A") (A') (A") (A") (A')
                 (A') (A") (A") (A') (A') (A') (A') (A") (A') (A')
                 (A") (A') (A") (A") (A') (A') (A') (A') (A") (A")
                 (A') (A') (A') (A')
 The electronic state is 1-A'.
 Alpha  occ. eigenvalues --  -14.41917 -14.41915  -6.84463  -6.84457  -0.97236
 Alpha  occ. eigenvalues --   -0.95276  -0.62456  -0.60029  -0.59826  -0.58357
 Alpha  occ. eigenvalues --   -0.47730  -0.47435  -0.42731  -0.40112  -0.39598
 Alpha  occ. eigenvalues --   -0.32334
 Alpha virt. eigenvalues --    0.08532   0.11001   0.14539   0.15275   0.16971
 Alpha virt. eigenvalues --    0.19395   0.20622   0.20888   0.23720   0.24676
 Alpha virt. eigenvalues --    0.26845   0.27783   0.33829   0.34494   0.39261
 Alpha virt. eigenvalues --    0.41194   0.45907   0.47584   0.49940   0.52691
 Alpha virt. eigenvalues --    0.54196   0.54652   0.55226   0.59582   0.62966
 Alpha virt. eigenvalues --    0.64625   0.65530   0.69820   0.77859   0.78113
 Alpha virt. eigenvalues --    0.78125   0.80179   0.82520   0.91276   0.93274
 Alpha virt. eigenvalues --    1.03713   1.04561   1.05383   1.06955   1.15759
 Alpha virt. eigenvalues --    1.20680   1.26469   1.26561   1.30548   1.32745
 Alpha virt. eigenvalues --    1.35879   1.39072   1.45821   1.64029   1.65316
 Alpha virt. eigenvalues --    1.70228   1.71145   1.71953   1.75432   1.77459
 Alpha virt. eigenvalues --    1.78321   1.83675   1.83985   1.89105   1.96075
 Alpha virt. eigenvalues --    1.99318   2.02531   2.02688   2.03484   2.10260
 Alpha virt. eigenvalues --    2.12122   2.12735   2.19319   2.20266   2.20344
 Alpha virt. eigenvalues --    2.29721   2.34701   2.51090   2.53247   2.53379
 Alpha virt. eigenvalues --    2.56770   2.57761   2.62533   2.63212   2.68533
 Alpha virt. eigenvalues --    2.68749   2.77330   2.77706   2.79945   2.81280
 Alpha virt. eigenvalues --    2.91327   2.92822   2.98945   3.04453   3.08047
 Alpha virt. eigenvalues --    3.08072   3.19116   3.28462   3.32064   3.97374
 Alpha virt. eigenvalues --    4.05138   4.66477   4.79778   4.86482   4.86580
 Alpha virt. eigenvalues --   14.72895  14.79913  35.71825  35.75514
          Condensed to atoms (all electrons):
               1          2          3          4          5          6
     1  B    3.582354   0.084831   0.397310  -0.013499  -0.033379  -0.033379
     2  N    0.084831   6.410864  -0.049797   0.397182   0.001620   0.001620
     3  N    0.397310  -0.049797   6.410612   0.084760   0.374871   0.374871
     4  B   -0.013499   0.397182   0.084760   3.582175  -0.003380  -0.003380
     5  H   -0.033379   0.001620   0.374871  -0.003380   0.463460  -0.033116
     6  H   -0.033379   0.001620   0.374871  -0.003380  -0.033116   0.463460
     7  H   -0.003229  -0.022493  -0.015934   0.435404  -0.002075   0.001248
     8  H   -0.003229  -0.022493  -0.015934   0.435404   0.001248  -0.002075
     9  H   -0.003388   0.374864   0.001618  -0.033354  -0.000137  -0.000005
    10  H   -0.003388   0.374864   0.001618  -0.033354  -0.000005  -0.000137
    11  H    0.435394  -0.015914  -0.022433  -0.003233   0.005748  -0.010125
    12  H    0.435394  -0.015914  -0.022433  -0.003233  -0.010125   0.005748
               7          8          9         10         11         12
     1  B   -0.003229  -0.003229  -0.003388  -0.003388   0.435394   0.435394
     2  N   -0.022493  -0.022493   0.374864   0.374864  -0.015914  -0.015914
     3  N   -0.015934  -0.015934   0.001618   0.001618  -0.022433  -0.022433
     4  B    0.435404   0.435404  -0.033354  -0.033354  -0.003233  -0.003233
     5  H   -0.002075   0.001248  -0.000137  -0.000005   0.005748  -0.010125
     6  H    0.001248  -0.002075  -0.000005  -0.000137  -0.010125   0.005748
     7  H    0.688467  -0.022816   0.005748  -0.010115  -0.000616   0.001217
     8  H   -0.022816   0.688467  -0.010115   0.005748   0.001217  -0.000616
     9  H    0.005748  -0.010115   0.463511  -0.033135  -0.002073   0.001248
    10  H   -0.010115   0.005748  -0.033135   0.463511   0.001248  -0.002073
    11  H   -0.000616   0.001217  -0.002073   0.001248   0.688633  -0.022994
    12  H    0.001217  -0.000616   0.001248  -0.002073  -0.022994   0.688633
 Mulliken charges:
               1
     1  B    0.158207
     2  N   -0.519234
     3  N   -0.519130
     4  B    0.158507
     5  H    0.235268
     6  H    0.235268
     7  H   -0.054808
     8  H   -0.054808
     9  H    0.235216
    10  H    0.235216
    11  H   -0.054851
    12  H   -0.054851
 Sum of Mulliken charges =   0.00000
 Mulliken charges with hydrogens summed into heavy atoms:
               1
     1  B    0.048504
     2  N   -0.048802
     3  N   -0.048593
     4  B    0.048892
 Electronic spatial extent (au):  <R**2>=            331.4070
 Charge=              0.0000 electrons
 Dipole moment (field-independent basis, Debye):
    X=             -0.0011    Y=              0.0021    Z=              0.0000  Tot=              0.0024
 Quadrupole moment (field-independent basis, Debye-Ang):
   XX=            -20.7239   YY=            -33.1731   ZZ=            -26.6244
   XY=              2.8111   XZ=             -0.0000   YZ=              0.0000
 Traceless Quadrupole moment (field-independent basis, Debye-Ang):
   XX=              6.1166   YY=             -6.3326   ZZ=              0.2160
   XY=              2.8111   XZ=             -0.0000   YZ=              0.0000
 Octapole moment (field-independent basis, Debye-Ang**2):
  XXX=              0.0014  YYY=              0.0097  ZZZ=              0.0000  XYY=             -0.0009
  XXY=             -0.0015  XXZ=              0.0000  XZZ=             -0.0030  YZZ=              0.0048
  YYZ=              0.0000  XYZ=             -0.0000
 Hexadecapole moment (field-independent basis, Debye-Ang**3):
 XXXX=           -149.6011 YYYY=           -241.4950 ZZZZ=            -66.1389 XXXY=            -12.8166
 XXXZ=             -0.0000 YYYX=            -17.0793 YYYZ=              0.0000 ZZZX=             -0.0000
 ZZZY=              0.0000 XXYY=            -72.6965 XXZZ=            -28.5463 YYZZ=            -54.1954
 XXYZ=             -0.0000 YYXZ=             -0.0000 ZZXY=             -2.2739
 N-N= 1.146120373572D+02 E-N=-6.104794500999D+02  KE= 1.633014849554D+02
 Symmetry A'   KE= 1.549179920338D+02
 Symmetry A"   KE= 8.383492921539D+00
 No NMR shielding tensors so no spin-rotation constants.
 Leave Link  601 at Thu Mar  9 15:14:12 2017, MaxMem=   845807616 cpu:         0.7
 (Enter /share/apps/g09RelE.01/g09/l9999.exe)
 1\1\GINC-COMPUTE-0-4\Scan\RwB97XD\6-311G(d,p)\B2H8N2\BERTA\09-Mar-2017
 \0\\#P RwB97XD/6-311G(d,p)int(grid=ultrafine) opt(modred,loose)\\AB2-m
 ult-scan6_2.gjf\\0,1\B,0.0373066686,1.2382392929,0.\N,-1.2914815345,-0
 .5188347063,0.\N,1.2958247082,0.5151749885,0.\B,-0.0327504681,-1.24206
 1277,0.\H,1.8506483943,0.4557530082,0.8377079397\H,1.8506483943,0.4557
 530082,-0.8377079397\H,0.3598768359,-1.6843561386,1.0394496943\H,0.359
 8768359,-1.6843561386,-1.0394496943\H,-1.8465177806,-0.4592950429,-0.8
 375917004\H,-1.8465177806,-0.4592950429,0.8375917004\H,-0.3563406366,1
 .6818555243,-1.0386093731\H,-0.3563406366,1.6818555243,1.0386093731\\V
 ersion=ES64L-G09RevE.01\State=1-A'\HF=-164.063794,-164.0631259\RMSD=3.
 892e-09,5.738e-09\PG=CS [SG(B2N2),X(H8)]\\@


 IF I AM NOT FOR MYSELF, WHO WILL BE?
 BUT IF I AM ONLY FOR MYSELF, WHAT AM I?
 THOUGH A SEEKER SINCE MY BIRTH,
 HERE IS ALL I'VE LEARNED ON EARTH,
 THIS IS THE GIST OF WHAT I KNOW:
 GIVE ADVICE AND BUY A FOE.

 PRESSED FOR RULES AND VERITIES,
 ALL I RECOLLECT ARE THESE:
 FEED A COLD TO STARVE A FEVER,
 ARGUE WITH NO TRUE-BELIEVER.
 THINK-TOO-LONG IS NEVER-ACT,
 SCRATCH A MYTH AND FIND A FACT.

 STITCH IN TIME SAVES TWENTY STITCHES,
 GIVE THE RICH TO PLEASE THEM, RICHES.
 GIVE TO LOVE YOU HEARTH AND HALL,
 BUT DO NOT GIVE ADVICE AT ALL.

                                  -- HILLEL
 Job cpu time:       0 days  0 hours  6 minutes 24.2 seconds.
 File lengths (MBytes):  RWF=      9 Int=      0 D2E=      0 Chk=      3 Scr=      1
 Normal termination of Gaussian 09 at Thu Mar  9 15:14:12 2017.
