compute-0-6.local
 Entering Gaussian System, Link 0=g09
 Initial command:
 /share/apps/g09RelD.01/g09/l1.exe "/state/partition1/berta/Gau-2505.inp" -scrdir="/state/partition1/berta/"
 Entering Link 1 = /share/apps/g09RelD.01/g09/l1.exe PID=      2506.
  
 Copyright (c) 1988,1990,1992,1993,1995,1998,2003,2009,2013,
            Gaussian, Inc.  All Rights Reserved.
  
 This is part of the Gaussian(R) 09 program.  It is based on
 the Gaussian(R) 03 system (copyright 2003, Gaussian, Inc.),
 the Gaussian(R) 98 system (copyright 1998, Gaussian, Inc.),
 the Gaussian(R) 94 system (copyright 1995, Gaussian, Inc.),
 the Gaussian 92(TM) system (copyright 1992, Gaussian, Inc.),
 the Gaussian 90(TM) system (copyright 1990, Gaussian, Inc.),
 the Gaussian 88(TM) system (copyright 1988, Gaussian, Inc.),
 the Gaussian 86(TM) system (copyright 1986, Carnegie Mellon
 University), and the Gaussian 82(TM) system (copyright 1983,
 Carnegie Mellon University). Gaussian is a federally registered
 trademark of Gaussian, Inc.
  
 This software contains proprietary and confidential information,
 including trade secrets, belonging to Gaussian, Inc.
  
 This software is provided under written license and may be
 used, copied, transmitted, or stored only in accord with that
 written license.
  
 The following legend is applicable only to US Government
 contracts under FAR:
  
                    RESTRICTED RIGHTS LEGEND
  
 Use, reproduction and disclosure by the US Government is
 subject to restrictions as set forth in subparagraphs (a)
 and (c) of the Commercial Computer Software - Restricted
 Rights clause in FAR 52.227-19.
  
 Gaussian, Inc.
 340 Quinnipiac St., Bldg. 40, Wallingford CT 06492
  
  
 ---------------------------------------------------------------
 Warning -- This program may not be used in any manner that
 competes with the business of Gaussian, Inc. or will provide
 assistance to any competitor of Gaussian, Inc.  The licensee
 of this program is prohibited from giving any competitor of
 Gaussian, Inc. access to this program.  By using this program,
 the user acknowledges that Gaussian, Inc. is engaged in the
 business of creating and licensing software in the field of
 computational chemistry and represents and warrants to the
 licensee that it is not a competitor of Gaussian, Inc. and that
 it will not use this program in any manner prohibited above.
 ---------------------------------------------------------------
  

 Cite this work as:
 Gaussian 09, Revision D.01,
 M. J. Frisch, G. W. Trucks, H. B. Schlegel, G. E. Scuseria, 
 M. A. Robb, J. R. Cheeseman, G. Scalmani, V. Barone, B. Mennucci, 
 G. A. Petersson, H. Nakatsuji, M. Caricato, X. Li, H. P. Hratchian, 
 A. F. Izmaylov, J. Bloino, G. Zheng, J. L. Sonnenberg, M. Hada, 
 M. Ehara, K. Toyota, R. Fukuda, J. Hasegawa, M. Ishida, T. Nakajima, 
 Y. Honda, O. Kitao, H. Nakai, T. Vreven, J. A. Montgomery, Jr., 
 J. E. Peralta, F. Ogliaro, M. Bearpark, J. J. Heyd, E. Brothers, 
 K. N. Kudin, V. N. Staroverov, T. Keith, R. Kobayashi, J. Normand, 
 K. Raghavachari, A. Rendell, J. C. Burant, S. S. Iyengar, J. Tomasi, 
 M. Cossi, N. Rega, J. M. Millam, M. Klene, J. E. Knox, J. B. Cross, 
 V. Bakken, C. Adamo, J. Jaramillo, R. Gomperts, R. E. Stratmann, 
 O. Yazyev, A. J. Austin, R. Cammi, C. Pomelli, J. W. Ochterski, 
 R. L. Martin, K. Morokuma, V. G. Zakrzewski, G. A. Voth, 
 P. Salvador, J. J. Dannenberg, S. Dapprich, A. D. Daniels, 
 O. Farkas, J. B. Foresman, J. V. Ortiz, J. Cioslowski, 
 and D. J. Fox, Gaussian, Inc., Wallingford CT, 2013.
 
 ******************************************
 Gaussian 09:  AS64L-G09RevD.01 24-Apr-2013
                 9-Mar-2017 
 ******************************************
 %chk=AB-AB-NHscan.chk
 %nproc=4
 Will use up to    4 processors via shared memory.
 %mem=4298MB
 -----------------------------------------------------------
 #P RwB97XD/6-311G(d,p)int(grid=ultrafine) opt(modred,loose)
 -----------------------------------------------------------
 1/7=-1,14=-1,18=120,19=15,26=4,38=1/1,3;
 2/9=110,12=2,17=6,18=5,40=1/2;
 3/5=4,6=6,7=101,11=2,16=1,25=1,30=1,71=1,74=-58,75=-5,116=1/1,2,3;
 4//1;
 5/5=2,38=5/2;
 6/7=2,8=2,9=2,10=2,28=1/1;
 7//1,2,3,16;
 1/7=-1,14=-1,18=20,19=15,26=4/3(2);
 2/9=110/2;
 99//99;
 2/9=110/2;
 3/5=4,6=6,7=101,11=2,16=1,25=1,30=1,71=1,74=-58,75=-5,116=1/1,2,3;
 4/5=5,16=3,69=1/1;
 5/5=2,38=5/2;
 7//1,2,3,16;
 1/7=-1,14=-1,18=20,19=15,26=4/3(-5);
 2/9=110/2;
 6/7=2,8=2,9=2,10=2,19=2,28=1/1;
 99/9=1/99;
 Leave Link    1 at Thu Mar  9 18:27:48 2017, MaxMem=   563347456 cpu:         0.5
 (Enter /share/apps/g09RelD.01/g09/l101.exe)
 ---------------------
 AB2-mult-scan10_1.gjf
 ---------------------
 Symbolic Z-matrix:
 Charge =  0 Multiplicity = 1
 B                    -0.95211  -0.93047   0. 
 N                     1.48732  -0.37015   0. 
 N                    -1.48723   0.37069   0. 
 B                     0.95279   0.92842   0. 
 H                    -1.73123   0.85957   0.84428 
 H                    -1.73123   0.85957  -0.84428 
 H                     0.79994   1.49631   1.04049 
 H                     0.79994   1.49631  -1.04049 
 H                     1.74029  -0.85708  -0.84275 
 H                     1.74029  -0.85708   0.84275 
 H                    -0.811    -1.49556  -1.04344 
 H                    -0.811    -1.49556   1.04344 
 
 Add virtual bond connecting atoms N2         and B1         Dist= 4.73D+00.
 Add virtual bond connecting atoms B4         and B1         Dist= 5.03D+00.
 Add virtual bond connecting atoms B4         and N3         Dist= 4.73D+00.
 Add virtual bond connecting atoms H7         and H5         Dist= 4.95D+00.
 Add virtual bond connecting atoms H8         and H6         Dist= 4.95D+00.
 The following ModRedundant input section has been read:
 B       1       2 S   1 0.1000                                                
 B       3       4 F                                                           
 
 NAtoms=     12 NQM=       12 NQMF=       0 NMMI=      0 NMMIF=      0
                NMic=       0 NMicF=      0.
                    Isotopes and Nuclear Properties:
 (Nuclear quadrupole moments (NQMom) in fm**2, nuclear magnetic moments (NMagM)
  in nuclear magnetons)

  Atom         1           2           3           4           5           6           7           8           9          10
 IAtWgt=          11          14          14          11           1           1           1           1           1           1
 AtmWgt=  11.0093053  14.0030740  14.0030740  11.0093053   1.0078250   1.0078250   1.0078250   1.0078250   1.0078250   1.0078250
 NucSpn=           3           2           2           3           1           1           1           1           1           1
 AtZEff=   0.0000000   0.0000000   0.0000000   0.0000000   0.0000000   0.0000000   0.0000000   0.0000000   0.0000000   0.0000000
 NQMom=    4.0590000   2.0440000   2.0440000   4.0590000   0.0000000   0.0000000   0.0000000   0.0000000   0.0000000   0.0000000
 NMagM=    2.6886370   0.4037610   0.4037610   2.6886370   2.7928460   2.7928460   2.7928460   2.7928460   2.7928460   2.7928460
 AtZNuc=   5.0000000   7.0000000   7.0000000   5.0000000   1.0000000   1.0000000   1.0000000   1.0000000   1.0000000   1.0000000

  Atom        11          12
 IAtWgt=           1           1
 AtmWgt=   1.0078250   1.0078250
 NucSpn=           1           1
 AtZEff=   0.0000000   0.0000000
 NQMom=    0.0000000   0.0000000
 NMagM=    2.7928460   2.7928460
 AtZNuc=   1.0000000   1.0000000
 Leave Link  101 at Thu Mar  9 18:27:48 2017, MaxMem=   563347456 cpu:         1.4
 (Enter /share/apps/g09RelD.01/g09/l103.exe)

 GradGradGradGradGradGradGradGradGradGradGradGradGradGradGradGradGradGrad
 Berny optimization.
 Initialization pass.
                           ----------------------------
                           !    Initial Parameters    !
                           ! (Angstroms and Degrees)  !
 --------------------------                            --------------------------
 ! Name  Definition              Value          Derivative Info.                !
 --------------------------------------------------------------------------------
 ! R1    R(1,2)                  2.503          Scan                            !
 ! R2    R(1,3)                  1.4069         estimate D2E/DX2                !
 ! R3    R(1,4)                  2.6616         estimate D2E/DX2                !
 ! R4    R(1,11)                 1.195          estimate D2E/DX2                !
 ! R5    R(1,12)                 1.195          estimate D2E/DX2                !
 ! R6    R(2,4)                  1.4043         estimate D2E/DX2                !
 ! R7    R(2,9)                  1.0056         estimate D2E/DX2                !
 ! R8    R(2,10)                 1.0056         estimate D2E/DX2                !
 ! R9    R(3,4)                  2.5029         Frozen                          !
 ! R10   R(3,5)                  1.0057         estimate D2E/DX2                !
 ! R11   R(3,6)                  1.0057         estimate D2E/DX2                !
 ! R12   R(4,7)                  1.1952         estimate D2E/DX2                !
 ! R13   R(4,8)                  1.1952         estimate D2E/DX2                !
 ! R14   R(5,7)                  2.6174         estimate D2E/DX2                !
 ! R15   R(6,8)                  2.6174         estimate D2E/DX2                !
 ! A1    A(2,1,3)               99.4192         estimate D2E/DX2                !
 ! A2    A(2,1,11)              89.4715         estimate D2E/DX2                !
 ! A3    A(2,1,12)              89.4715         estimate D2E/DX2                !
 ! A4    A(3,1,11)             118.8325         estimate D2E/DX2                !
 ! A5    A(3,1,12)             118.8325         estimate D2E/DX2                !
 ! A6    A(4,1,11)             104.2262         estimate D2E/DX2                !
 ! A7    A(4,1,12)             104.2262         estimate D2E/DX2                !
 ! A8    A(11,1,12)            121.6605         estimate D2E/DX2                !
 ! A9    A(1,2,9)               97.8611         estimate D2E/DX2                !
 ! A10   A(1,2,10)              97.8611         estimate D2E/DX2                !
 ! A11   A(4,2,9)              122.9224         estimate D2E/DX2                !
 ! A12   A(4,2,10)             122.9224         estimate D2E/DX2                !
 ! A13   A(9,2,10)             113.8623         estimate D2E/DX2                !
 ! A14   A(1,3,5)              122.8113         estimate D2E/DX2                !
 ! A15   A(1,3,6)              122.8113         estimate D2E/DX2                !
 ! A16   A(4,3,5)               97.3662         estimate D2E/DX2                !
 ! A17   A(4,3,6)               97.3662         estimate D2E/DX2                !
 ! A18   A(5,3,6)              114.1812         estimate D2E/DX2                !
 ! A19   A(1,4,7)              103.9052         estimate D2E/DX2                !
 ! A20   A(1,4,8)              103.9052         estimate D2E/DX2                !
 ! A21   A(2,4,3)               99.4983         estimate D2E/DX2                !
 ! A22   A(2,4,7)              119.213          estimate D2E/DX2                !
 ! A23   A(2,4,8)              119.213          estimate D2E/DX2                !
 ! A24   A(3,4,7)               88.9228         estimate D2E/DX2                !
 ! A25   A(3,4,8)               88.9228         estimate D2E/DX2                !
 ! A26   A(7,4,8)              121.0484         estimate D2E/DX2                !
 ! A27   A(3,5,7)               86.9363         estimate D2E/DX2                !
 ! A28   A(3,6,8)               86.9363         estimate D2E/DX2                !
 ! A29   A(4,7,5)               86.7225         estimate D2E/DX2                !
 ! A30   A(4,8,6)               86.7225         estimate D2E/DX2                !
 ! D1    D(3,1,2,9)           -122.2245         estimate D2E/DX2                !
 ! D2    D(3,1,2,10)           122.2245         estimate D2E/DX2                !
 ! D3    D(11,1,2,9)            -3.0591         estimate D2E/DX2                !
 ! D4    D(11,1,2,10)         -118.6102         estimate D2E/DX2                !
 ! D5    D(12,1,2,9)           118.6102         estimate D2E/DX2                !
 ! D6    D(12,1,2,10)            3.0591         estimate D2E/DX2                !
 ! D7    D(2,1,3,5)            -92.6937         estimate D2E/DX2                !
 ! D8    D(2,1,3,6)             92.6937         estimate D2E/DX2                !
 ! D9    D(11,1,3,5)           172.6804         estimate D2E/DX2                !
 ! D10   D(11,1,3,6)            -1.9321         estimate D2E/DX2                !
 ! D11   D(12,1,3,5)             1.9321         estimate D2E/DX2                !
 ! D12   D(12,1,3,6)          -172.6804         estimate D2E/DX2                !
 ! D13   D(11,1,4,7)           179.4825         estimate D2E/DX2                !
 ! D14   D(11,1,4,8)            51.9894         estimate D2E/DX2                !
 ! D15   D(12,1,4,7)           -51.9894         estimate D2E/DX2                !
 ! D16   D(12,1,4,8)          -179.4825         estimate D2E/DX2                !
 ! D17   D(9,2,4,3)             93.2993         estimate D2E/DX2                !
 ! D18   D(9,2,4,7)           -172.588          estimate D2E/DX2                !
 ! D19   D(9,2,4,8)             -0.8135         estimate D2E/DX2                !
 ! D20   D(10,2,4,3)           -93.2993         estimate D2E/DX2                !
 ! D21   D(10,2,4,7)             0.8135         estimate D2E/DX2                !
 ! D22   D(10,2,4,8)           172.588          estimate D2E/DX2                !
 ! D23   D(5,3,4,2)            122.1652         estimate D2E/DX2                !
 ! D24   D(5,3,4,7)              2.7073         estimate D2E/DX2                !
 ! D25   D(5,3,4,8)           -118.377          estimate D2E/DX2                !
 ! D26   D(6,3,4,2)           -122.1652         estimate D2E/DX2                !
 ! D27   D(6,3,4,7)            118.377          estimate D2E/DX2                !
 ! D28   D(6,3,4,8)             -2.7073         estimate D2E/DX2                !
 ! D29   D(1,3,5,7)             82.202          estimate D2E/DX2                !
 ! D30   D(4,3,5,7)             -1.2374         estimate D2E/DX2                !
 ! D31   D(6,3,5,7)           -102.7604         estimate D2E/DX2                !
 ! D32   D(1,3,6,8)            -82.202          estimate D2E/DX2                !
 ! D33   D(4,3,6,8)              1.2374         estimate D2E/DX2                !
 ! D34   D(5,3,6,8)            102.7604         estimate D2E/DX2                !
 ! D35   D(1,4,7,5)            -28.9165         estimate D2E/DX2                !
 ! D36   D(2,4,7,5)           -101.3203         estimate D2E/DX2                !
 ! D37   D(3,4,7,5)             -1.033          estimate D2E/DX2                !
 ! D38   D(8,4,7,5)             87.0606         estimate D2E/DX2                !
 ! D39   D(1,4,8,6)             28.9165         estimate D2E/DX2                !
 ! D40   D(2,4,8,6)            101.3203         estimate D2E/DX2                !
 ! D41   D(3,4,8,6)              1.033          estimate D2E/DX2                !
 ! D42   D(7,4,8,6)            -87.0606         estimate D2E/DX2                !
 ! D43   D(3,5,7,4)              2.5749         estimate D2E/DX2                !
 ! D44   D(3,6,8,4)             -2.5749         estimate D2E/DX2                !
 --------------------------------------------------------------------------------
 Trust Radius=3.00D-01 FncErr=1.00D-07 GrdErr=1.00D-06
 Number of optimizations in scan=   2
 Number of steps in this run=     99 maximum allowed number of steps=    100.
 GradGradGradGradGradGradGradGradGradGradGradGradGradGradGradGradGradGrad

 Leave Link  103 at Thu Mar  9 18:27:48 2017, MaxMem=   563347456 cpu:         0.1
 (Enter /share/apps/g09RelD.01/g09/l202.exe)
                          Input orientation:                          
 ---------------------------------------------------------------------
 Center     Atomic      Atomic             Coordinates (Angstroms)
 Number     Number       Type             X           Y           Z
 ---------------------------------------------------------------------
      1          5           0       -0.952111   -0.930473    0.000000
      2          7           0        1.487316   -0.370148    0.000000
      3          7           0       -1.487227    0.370693    0.000000
      4          5           0        0.952790    0.928417    0.000000
      5          1           0       -1.731233    0.859570    0.844283
      6          1           0       -1.731233    0.859570   -0.844283
      7          1           0        0.799937    1.496306    1.040489
      8          1           0        0.799937    1.496306   -1.040489
      9          1           0        1.740289   -0.857083   -0.842747
     10          1           0        1.740289   -0.857083    0.842747
     11          1           0       -0.811003   -1.495558   -1.043442
     12          1           0       -0.811003   -1.495558    1.043442
 ---------------------------------------------------------------------
                    Distance matrix (angstroms):
                    1          2          3          4          5
     1  B    0.000000
     2  N    2.502952   0.000000
     3  N    1.406905   3.065412   0.000000
     4  B    2.661601   1.404275   2.502946   0.000000
     5  H    2.126993   3.547404   1.005661   2.814522   0.000000
     6  H    2.126993   3.547404   1.005661   2.814522   1.688566
     7  H    3.168840   2.244718   2.753315   1.195190   2.617394
     8  H    3.168840   2.244718   2.753315   1.195190   3.219413
     9  H    2.822167   1.005646   3.554506   2.125650   4.224267
    10  H    2.822167   1.005646   3.554506   2.125650   3.872772
    11  H    1.194991   2.763619   2.242530   3.174176   3.155465
    12  H    1.194991   2.763619   2.242530   3.174176   2.536359
                    6          7          8          9         10
     6  H    0.000000
     7  H    3.219413   0.000000
     8  H    2.617394   2.080978   0.000000
     9  H    3.872772   3.157417   2.542008   0.000000
    10  H    4.224267   2.542008   3.157417   1.685494   0.000000
    11  H    2.536359   3.986119   3.397997   2.637616   3.236426
    12  H    3.155465   3.397997   3.986119   3.236426   2.637616
                   11         12
    11  H    0.000000
    12  H    2.086884   0.000000
 Stoichiometry    B2H8N2
 Framework group  CS[SG(B2N2),X(H8)]
 Deg. of freedom    17
 Full point group                 CS      NOp   2
 Largest Abelian subgroup         CS      NOp   2
 Largest concise Abelian subgroup CS      NOp   2
                         Standard orientation:                         
 ---------------------------------------------------------------------
 Center     Atomic      Atomic             Coordinates (Angstroms)
 Number     Number       Type             X           Y           Z
 ---------------------------------------------------------------------
      1          5           0        0.001947   -1.331274    0.000000
      2          7           0        1.303081    0.806906    0.000000
      3          7           0       -1.303409   -0.806462    0.000000
      4          5           0        0.000000    1.330326    0.000000
      5          1           0       -1.823836   -0.640041    0.844283
      6          1           0       -1.823836   -0.640041   -0.844283
      7          1           0       -0.513401    1.617173    1.040489
      8          1           0       -0.513401    1.617173   -1.040489
      9          1           0        1.828375    0.648262   -0.842747
     10          1           0        1.828375    0.648262    0.842747
     11          1           0        0.505143   -1.624577   -1.043442
     12          1           0        0.505143   -1.624577    1.043442
 ---------------------------------------------------------------------
 Rotational constants (GHZ):     12.0433702      4.8562865      3.8420172
 Leave Link  202 at Thu Mar  9 18:27:49 2017, MaxMem=   563347456 cpu:         0.0
 (Enter /share/apps/g09RelD.01/g09/l301.exe)
 Standard basis: 6-311G(d,p) (5D, 7F)
 Ernie: Thresh=  0.10000D-02 Tol=  0.10000D-05 Strict=F.
 There are    80 symmetry adapted cartesian basis functions of A'  symmetry.
 There are    44 symmetry adapted cartesian basis functions of A"  symmetry.
 There are    76 symmetry adapted basis functions of A'  symmetry.
 There are    44 symmetry adapted basis functions of A"  symmetry.
   120 basis functions,   192 primitive gaussians,   124 cartesian basis functions
    16 alpha electrons       16 beta electrons
       nuclear repulsion energy       111.5914230198 Hartrees.
 IExCor= 4639 DFT=T Ex+Corr=wB97XD ExCW=0 ScaHFX=  1.000000
 ScaDFX=  1.000000  1.000000  1.000000  1.000000 ScalE2=  1.000000  1.000000
 IRadAn=      5 IRanWt=     -1 IRanGd=            0 ICorTp=0 IEmpDi=121
  HFx wShort=  0.000000 wLong=  0.200000 cFull=  0.222036 cShort=  0.000000 cLong=  0.777964
  DFx wShort=  0.000000 wLong=  0.200000 cFull=  0.000000 cShort=  0.000000 cLong=  1.000000
 NAtoms=   12 NActive=   12 NUniq=    8 SFac= 2.25D+00 NAtFMM=   60 NAOKFM=F Big=F
 Integral buffers will be    131072 words long.
 Raffenetti 2 integral format.
 Two-electron integral symmetry is turned on.
 R6Disp:  Grimme-D2 Dispersion energy=       -0.0057712777 Hartrees.
 Nuclear repulsion after empirical dispersion term =      111.5856517421 Hartrees.
 Leave Link  301 at Thu Mar  9 18:27:49 2017, MaxMem=   563347456 cpu:         0.4
 (Enter /share/apps/g09RelD.01/g09/l302.exe)
 NPDir=0 NMtPBC=     1 NCelOv=     1 NCel=       1 NClECP=     1 NCelD=      1
         NCelK=      1 NCelE2=     1 NClLst=     1 CellRange=     0.0.
 One-electron integrals computed using PRISM.
 One-electron integral symmetry used in STVInt
 NBasis=   120 RedAO= T EigKep=  5.91D-03  NBF=    76    44
 NBsUse=   120 1.00D-06 EigRej= -1.00D+00 NBFU=    76    44
 Precomputing XC quadrature grid using
 IXCGrd= 4 IRadAn=           5 IRanWt=          -1 IRanGd=           0 AccXCQ= 0.00D+00.
 Generated NRdTot=       0 NPtTot=           0 NUsed=           0 NTot=          32
 NSgBfM=   124   124   124   124   124 MxSgAt=    12 MxSgA2=    12.
 Leave Link  302 at Thu Mar  9 18:27:49 2017, MaxMem=   563347456 cpu:         1.6
 (Enter /share/apps/g09RelD.01/g09/l303.exe)
 DipDrv:  MaxL=1.
 Leave Link  303 at Thu Mar  9 18:27:49 2017, MaxMem=   563347456 cpu:         0.3
 (Enter /share/apps/g09RelD.01/g09/l401.exe)
 ExpMin= 9.89D-02 ExpMax= 6.29D+03 ExpMxC= 9.49D+02 IAcc=3 IRadAn=         5 AccDes= 0.00D+00
 Harris functional with IExCor= 4639 and IRadAn=       5 diagonalized for initial guess.
 HarFok:  IExCor= 4639 AccDes= 0.00D+00 IRadAn=         5 IDoV= 1 UseB2=F ITyADJ=14
 ICtDFT=  3500011 ScaDFX=  1.000000  1.000000  1.000000  1.000000
 FoFCou: FMM=F IPFlag=           0 FMFlag=      100000 FMFlg1=           0
         NFxFlg=           0 DoJE=T BraDBF=F KetDBF=T FulRan=T
         wScrn=  0.000000 ICntrl=     500 IOpCl=  0 I1Cent=   200000004 NGrid=           0
         NMat0=    1 NMatS0=      1 NMatT0=    0 NMatD0=    1 NMtDS0=    0 NMtDT0=    0
 Petite list used in FoFCou.
 Harris En= -156.197086687019    
 JPrj=0 DoOrth=F DoCkMO=F.
 Initial guess orbital symmetries:
       Occupied  (A') (A') (A') (A') (A') (A') (A') (A') (A") (A")
                 (A') (A') (A") (A') (A") (A')
       Virtual   (A') (A') (A') (A') (A") (A') (A") (A') (A") (A')
                 (A') (A") (A') (A") (A') (A") (A') (A') (A') (A")
                 (A') (A') (A") (A') (A') (A') (A") (A") (A') (A')
                 (A") (A') (A") (A') (A') (A") (A') (A') (A") (A')
                 (A') (A") (A") (A') (A") (A") (A') (A') (A') (A")
                 (A") (A') (A") (A") (A') (A') (A") (A') (A") (A')
                 (A') (A") (A") (A') (A') (A') (A') (A') (A") (A")
                 (A') (A') (A') (A') (A") (A") (A") (A') (A") (A')
                 (A') (A") (A") (A') (A') (A') (A') (A") (A") (A')
                 (A') (A') (A") (A") (A') (A') (A') (A') (A") (A")
                 (A') (A') (A') (A')
 The electronic state of the initial guess is 1-A'.
 Leave Link  401 at Thu Mar  9 18:27:50 2017, MaxMem=   563347456 cpu:         4.7
 (Enter /share/apps/g09RelD.01/g09/l502.exe)
 Closed shell SCF:
 Using DIIS extrapolation, IDIIS=  1040.
 Integral symmetry usage will be decided dynamically.
 Keep R1 ints in memory in symmetry-blocked form, NReq=79321962.
 IVT=       66538 IEndB=       66538 NGot=   563347456 MDV=   550002801
 LenX=   550002801 LenY=   549986984
 Requested convergence on RMS density matrix=1.00D-08 within 128 cycles.
 Requested convergence on MAX density matrix=1.00D-06.
 Requested convergence on             energy=1.00D-06.
 No special actions if energy rises.
 FoFCou: FMM=F IPFlag=           0 FMFlag=           0 FMFlg1=           0
         NFxFlg=           0 DoJE=F BraDBF=F KetDBF=F FulRan=T
         wScrn=  0.000000 ICntrl=     600 IOpCl=  0 I1Cent=           0 NGrid=           0
         NMat0=    1 NMatS0=   7260 NMatT0=    0 NMatD0=    1 NMtDS0=    0 NMtDT0=    0
 Petite list used in FoFCou.
 Integral accuracy reduced to 1.0D-05 until final iterations.

 Cycle   1  Pass 0  IDiag  1:
 E= -164.018590322004    
 DIIS: error= 1.02D-01 at cycle   1 NSaved=   1.
 NSaved= 1 IEnMin= 1 EnMin= -164.018590322004     IErMin= 1 ErrMin= 1.02D-01
 ErrMax= 1.02D-01  0.00D+00 EMaxC= 1.00D-01 BMatC= 3.44D-01 BMatP= 3.44D-01
 IDIUse=3 WtCom= 0.00D+00 WtEn= 1.00D+00
 Coeff-Com:  0.100D+01
 Coeff-En:   0.100D+01
 Coeff:      0.100D+01
 Gap=     0.438 Goal=   None    Shift=    0.000
 GapD=    0.438 DampG=2.000 DampE=0.250 DampFc=0.5000 IDamp=-1.
 Damping current iteration by 5.00D-01
 RMSDP=1.49D-03 MaxDP=2.43D-02              OVMax= 8.33D-02

 Cycle   2  Pass 0  IDiag  1:
 E= -164.044415124775     Delta-E=       -0.025824802771 Rises=F Damp=T
 DIIS: error= 4.88D-02 at cycle   2 NSaved=   2.
 NSaved= 2 IEnMin= 2 EnMin= -164.044415124775     IErMin= 2 ErrMin= 4.88D-02
 ErrMax= 4.88D-02  0.00D+00 EMaxC= 1.00D-01 BMatC= 7.81D-02 BMatP= 3.44D-01
 IDIUse=3 WtCom= 5.12D-01 WtEn= 4.88D-01
 Coeff-Com: -0.880D+00 0.188D+01
 Coeff-En:   0.000D+00 0.100D+01
 Coeff:     -0.451D+00 0.145D+01
 Gap=     0.421 Goal=   None    Shift=    0.000
 RMSDP=6.22D-04 MaxDP=1.19D-02 DE=-2.58D-02 OVMax= 1.50D-02

 Cycle   3  Pass 0  IDiag  1:
 E= -164.068762229898     Delta-E=       -0.024347105122 Rises=F Damp=F
 DIIS: error= 2.46D-03 at cycle   3 NSaved=   3.
 NSaved= 3 IEnMin= 3 EnMin= -164.068762229898     IErMin= 3 ErrMin= 2.46D-03
 ErrMax= 2.46D-03  0.00D+00 EMaxC= 1.00D-01 BMatC= 1.98D-04 BMatP= 7.81D-02
 IDIUse=3 WtCom= 9.75D-01 WtEn= 2.46D-02
 Coeff-Com: -0.119D+00 0.265D+00 0.853D+00
 Coeff-En:   0.000D+00 0.000D+00 0.100D+01
 Coeff:     -0.116D+00 0.259D+00 0.857D+00
 Gap=     0.419 Goal=   None    Shift=    0.000
 RMSDP=8.98D-05 MaxDP=1.67D-03 DE=-2.43D-02 OVMax= 8.72D-03

 Cycle   4  Pass 0  IDiag  1:
 E= -164.068962518340     Delta-E=       -0.000200288442 Rises=F Damp=F
 DIIS: error= 6.74D-04 at cycle   4 NSaved=   4.
 NSaved= 4 IEnMin= 4 EnMin= -164.068962518340     IErMin= 4 ErrMin= 6.74D-04
 ErrMax= 6.74D-04  0.00D+00 EMaxC= 1.00D-01 BMatC= 2.88D-05 BMatP= 1.98D-04
 IDIUse=3 WtCom= 9.93D-01 WtEn= 6.74D-03
 Coeff-Com: -0.389D-02 0.129D-01 0.234D+00 0.757D+00
 Coeff-En:   0.000D+00 0.000D+00 0.000D+00 0.100D+01
 Coeff:     -0.386D-02 0.128D-01 0.232D+00 0.759D+00
 Gap=     0.417 Goal=   None    Shift=    0.000
 RMSDP=3.42D-05 MaxDP=1.00D-03 DE=-2.00D-04 OVMax= 1.29D-03

 Cycle   5  Pass 0  IDiag  1:
 E= -164.068988161517     Delta-E=       -0.000025643177 Rises=F Damp=F
 DIIS: error= 3.59D-04 at cycle   5 NSaved=   5.
 NSaved= 5 IEnMin= 5 EnMin= -164.068988161517     IErMin= 5 ErrMin= 3.59D-04
 ErrMax= 3.59D-04  0.00D+00 EMaxC= 1.00D-01 BMatC= 4.79D-06 BMatP= 2.88D-05
 IDIUse=3 WtCom= 9.96D-01 WtEn= 3.59D-03
 Coeff-Com:  0.244D-01-0.530D-01-0.642D-01 0.265D+00 0.828D+00
 Coeff-En:   0.000D+00 0.000D+00 0.000D+00 0.000D+00 0.100D+01
 Coeff:      0.243D-01-0.528D-01-0.640D-01 0.264D+00 0.828D+00
 Gap=     0.418 Goal=   None    Shift=    0.000
 RMSDP=1.92D-05 MaxDP=3.71D-04 DE=-2.56D-05 OVMax= 1.53D-03

 Cycle   6  Pass 0  IDiag  1:
 E= -164.068995175089     Delta-E=       -0.000007013572 Rises=F Damp=F
 DIIS: error= 4.76D-05 at cycle   6 NSaved=   6.
 NSaved= 6 IEnMin= 6 EnMin= -164.068995175089     IErMin= 6 ErrMin= 4.76D-05
 ErrMax= 4.76D-05  0.00D+00 EMaxC= 1.00D-01 BMatC= 1.83D-07 BMatP= 4.79D-06
 IDIUse=1 WtCom= 1.00D+00 WtEn= 0.00D+00
 Coeff-Com:  0.199D-02-0.430D-02-0.103D-01-0.577D-01 0.327D-01 0.104D+01
 Coeff:      0.199D-02-0.430D-02-0.103D-01-0.577D-01 0.327D-01 0.104D+01
 Gap=     0.418 Goal=   None    Shift=    0.000
 RMSDP=5.45D-06 MaxDP=1.05D-04 DE=-7.01D-06 OVMax= 3.76D-04

 Initial convergence to 1.0D-05 achieved.  Increase integral accuracy.
 Cycle   7  Pass 1  IDiag  1:
 E= -164.069010168236     Delta-E=       -0.000014993147 Rises=F Damp=F
 DIIS: error= 3.15D-05 at cycle   1 NSaved=   1.
 NSaved= 1 IEnMin= 1 EnMin= -164.069010168236     IErMin= 1 ErrMin= 3.15D-05
 ErrMax= 3.15D-05  0.00D+00 EMaxC= 1.00D-01 BMatC= 1.70D-07 BMatP= 1.70D-07
 IDIUse=1 WtCom= 1.00D+00 WtEn= 0.00D+00
 Coeff-Com:  0.100D+01
 Coeff:      0.100D+01
 Gap=     0.418 Goal=   None    Shift=    0.000
 RMSDP=5.45D-06 MaxDP=1.05D-04 DE=-1.50D-05 OVMax= 1.24D-04

 Cycle   8  Pass 1  IDiag  1:
 E= -164.069010372546     Delta-E=       -0.000000204310 Rises=F Damp=F
 DIIS: error= 8.51D-06 at cycle   2 NSaved=   2.
 NSaved= 2 IEnMin= 2 EnMin= -164.069010372546     IErMin= 2 ErrMin= 8.51D-06
 ErrMax= 8.51D-06  0.00D+00 EMaxC= 1.00D-01 BMatC= 4.88D-09 BMatP= 1.70D-07
 IDIUse=1 WtCom= 1.00D+00 WtEn= 0.00D+00
 Coeff-Com: -0.922D-01 0.109D+01
 Coeff:     -0.922D-01 0.109D+01
 Gap=     0.418 Goal=   None    Shift=    0.000
 RMSDP=9.33D-07 MaxDP=1.36D-05 DE=-2.04D-07 OVMax= 7.44D-05

 Cycle   9  Pass 1  IDiag  1:
 E= -164.069010384181     Delta-E=       -0.000000011635 Rises=F Damp=F
 DIIS: error= 3.36D-06 at cycle   3 NSaved=   3.
 NSaved= 3 IEnMin= 3 EnMin= -164.069010384181     IErMin= 3 ErrMin= 3.36D-06
 ErrMax= 3.36D-06  0.00D+00 EMaxC= 1.00D-01 BMatC= 9.93D-10 BMatP= 4.88D-09
 IDIUse=1 WtCom= 1.00D+00 WtEn= 0.00D+00
 Coeff-Com: -0.419D-01 0.269D+00 0.773D+00
 Coeff:     -0.419D-01 0.269D+00 0.773D+00
 Gap=     0.418 Goal=   None    Shift=    0.000
 RMSDP=2.66D-07 MaxDP=6.82D-06 DE=-1.16D-08 OVMax= 1.78D-05

 Cycle  10  Pass 1  IDiag  1:
 E= -164.069010385590     Delta-E=       -0.000000001410 Rises=F Damp=F
 DIIS: error= 1.98D-06 at cycle   4 NSaved=   4.
 NSaved= 4 IEnMin= 4 EnMin= -164.069010385590     IErMin= 4 ErrMin= 1.98D-06
 ErrMax= 1.98D-06  0.00D+00 EMaxC= 1.00D-01 BMatC= 2.03D-10 BMatP= 9.93D-10
 IDIUse=1 WtCom= 1.00D+00 WtEn= 0.00D+00
 Coeff-Com: -0.253D-02-0.530D-01 0.251D+00 0.804D+00
 Coeff:     -0.253D-02-0.530D-01 0.251D+00 0.804D+00
 Gap=     0.418 Goal=   None    Shift=    0.000
 RMSDP=1.48D-07 MaxDP=2.86D-06 DE=-1.41D-09 OVMax= 1.51D-05

 Cycle  11  Pass 1  IDiag  1:
 E= -164.069010386013     Delta-E=       -0.000000000423 Rises=F Damp=F
 DIIS: error= 7.60D-07 at cycle   5 NSaved=   5.
 NSaved= 5 IEnMin= 5 EnMin= -164.069010386013     IErMin= 5 ErrMin= 7.60D-07
 ErrMax= 7.60D-07  0.00D+00 EMaxC= 1.00D-01 BMatC= 2.69D-11 BMatP= 2.03D-10
 IDIUse=1 WtCom= 1.00D+00 WtEn= 0.00D+00
 Coeff-Com:  0.525D-02-0.445D-01-0.989D-01 0.156D+00 0.982D+00
 Coeff:      0.525D-02-0.445D-01-0.989D-01 0.156D+00 0.982D+00
 Gap=     0.418 Goal=   None    Shift=    0.000
 RMSDP=8.40D-08 MaxDP=1.45D-06 DE=-4.23D-10 OVMax= 8.51D-06

 Cycle  12  Pass 1  IDiag  1:
 E= -164.069010386094     Delta-E=       -0.000000000081 Rises=F Damp=F
 DIIS: error= 1.96D-07 at cycle   6 NSaved=   6.
 NSaved= 6 IEnMin= 6 EnMin= -164.069010386094     IErMin= 6 ErrMin= 1.96D-07
 ErrMax= 1.96D-07  0.00D+00 EMaxC= 1.00D-01 BMatC= 2.60D-12 BMatP= 2.69D-11
 IDIUse=1 WtCom= 1.00D+00 WtEn= 0.00D+00
 Coeff-Com:  0.163D-02-0.501D-02-0.605D-01-0.424D-01 0.238D+00 0.868D+00
 Coeff:      0.163D-02-0.501D-02-0.605D-01-0.424D-01 0.238D+00 0.868D+00
 Gap=     0.418 Goal=   None    Shift=    0.000
 RMSDP=2.67D-08 MaxDP=4.55D-07 DE=-8.14D-11 OVMax= 2.49D-06

 Cycle  13  Pass 1  IDiag  1:
 E= -164.069010386101     Delta-E=       -0.000000000007 Rises=F Damp=F
 DIIS: error= 6.79D-08 at cycle   7 NSaved=   7.
 NSaved= 7 IEnMin= 7 EnMin= -164.069010386101     IErMin= 7 ErrMin= 6.79D-08
 ErrMax= 6.79D-08  0.00D+00 EMaxC= 1.00D-01 BMatC= 3.36D-13 BMatP= 2.60D-12
 IDIUse=1 WtCom= 1.00D+00 WtEn= 0.00D+00
 Coeff-Com:  0.152D-03 0.204D-02-0.133D-01-0.240D-01-0.630D-02 0.293D+00
 Coeff-Com:  0.749D+00
 Coeff:      0.152D-03 0.204D-02-0.133D-01-0.240D-01-0.630D-02 0.293D+00
 Coeff:      0.749D+00
 Gap=     0.418 Goal=   None    Shift=    0.000
 RMSDP=6.11D-09 MaxDP=1.03D-07 DE=-7.28D-12 OVMax= 5.63D-07

 SCF Done:  E(RwB97XD) =  -164.069010386     A.U. after   13 cycles
            NFock= 13  Conv=0.61D-08     -V/T= 2.0041
 KE= 1.633967593356D+02 PE=-6.045218403645D+02 EE= 1.654704189007D+02
 Leave Link  502 at Thu Mar  9 18:28:08 2017, MaxMem=   563347456 cpu:        69.1
 (Enter /share/apps/g09RelD.01/g09/l601.exe)
 Copying SCF densities to generalized density rwf, IOpCl= 0 IROHF=0.

 **********************************************************************

            Population analysis using the SCF density.

 **********************************************************************

 Orbital symmetries:
       Occupied  (A') (A') (A') (A') (A') (A') (A') (A') (A") (A")
                 (A') (A') (A') (A") (A") (A')
       Virtual   (A') (A') (A') (A') (A") (A") (A') (A') (A") (A')
                 (A") (A') (A') (A") (A') (A") (A') (A') (A') (A")
                 (A') (A") (A') (A') (A') (A') (A") (A") (A') (A')
                 (A") (A') (A") (A') (A') (A") (A') (A") (A') (A')
                 (A') (A") (A") (A') (A") (A") (A') (A') (A') (A")
                 (A") (A") (A') (A") (A') (A') (A') (A") (A") (A')
                 (A') (A") (A") (A') (A') (A') (A') (A') (A") (A")
                 (A') (A') (A') (A') (A") (A") (A') (A") (A') (A")
                 (A') (A") (A") (A') (A') (A') (A") (A') (A") (A')
                 (A') (A') (A") (A") (A') (A') (A') (A') (A") (A")
                 (A') (A') (A') (A')
 The electronic state is 1-A'.
 Alpha  occ. eigenvalues --  -14.41951 -14.41872  -6.83552  -6.83552  -0.96887
 Alpha  occ. eigenvalues --   -0.95782  -0.61897  -0.60787  -0.60160  -0.59040
 Alpha  occ. eigenvalues --   -0.48034  -0.47705  -0.41455  -0.40156  -0.39891
 Alpha  occ. eigenvalues --   -0.33622
 Alpha virt. eigenvalues --    0.08177   0.10969   0.14153   0.14366   0.15261
 Alpha virt. eigenvalues --    0.19550   0.20615   0.20808   0.23620   0.24331
 Alpha virt. eigenvalues --    0.27437   0.28458   0.34097   0.34664   0.38755
 Alpha virt. eigenvalues --    0.38807   0.45786   0.47233   0.50897   0.52171
 Alpha virt. eigenvalues --    0.55779   0.55859   0.56720   0.60139   0.63747
 Alpha virt. eigenvalues --    0.66164   0.69444   0.69918   0.78439   0.78596
 Alpha virt. eigenvalues --    0.81087   0.84261   0.85788   0.91688   0.94965
 Alpha virt. eigenvalues --    0.96825   0.98067   1.00070   1.00487   1.11638
 Alpha virt. eigenvalues --    1.22460   1.23955   1.24903   1.29071   1.31051
 Alpha virt. eigenvalues --    1.32475   1.39079   1.46811   1.64384   1.66392
 Alpha virt. eigenvalues --    1.68217   1.69572   1.71885   1.73016   1.75343
 Alpha virt. eigenvalues --    1.78884   1.80825   1.81104   1.88759   1.90009
 Alpha virt. eigenvalues --    2.01184   2.01850   2.02077   2.07283   2.08043
 Alpha virt. eigenvalues --    2.09870   2.13676   2.15483   2.20411   2.20763
 Alpha virt. eigenvalues --    2.27264   2.32742   2.46997   2.50637   2.53798
 Alpha virt. eigenvalues --    2.56537   2.57755   2.59365   2.59902   2.60682
 Alpha virt. eigenvalues --    2.65328   2.75490   2.75730   2.81908   2.83575
 Alpha virt. eigenvalues --    2.92682   2.95338   2.95758   2.97232   3.02049
 Alpha virt. eigenvalues --    3.12065   3.24406   3.34023   3.35674   3.95980
 Alpha virt. eigenvalues --    3.99420   4.74828   4.82103   4.86664   4.87319
 Alpha virt. eigenvalues --   14.76951  14.80472  35.73241  35.75242
          Condensed to atoms (all electrons):
               1          2          3          4          5          6
     1  B    3.585413   0.025802   0.473347   0.003035  -0.034812  -0.034812
     2  N    0.025802   6.305916  -0.024577   0.473378   0.000227   0.000227
     3  N    0.473347  -0.024577   6.307472   0.025692   0.377135   0.377135
     4  B    0.003035   0.473378   0.025692   3.585423  -0.001983  -0.001983
     5  H   -0.034812   0.000227   0.377135  -0.001983   0.466942  -0.034929
     6  H   -0.034812   0.000227   0.377135  -0.001983  -0.034929   0.466942
     7  H   -0.004720  -0.023231  -0.007353   0.435707  -0.000895   0.000493
     8  H   -0.004720  -0.023231  -0.007353   0.435707   0.000493  -0.000895
     9  H   -0.001901   0.377043   0.000221  -0.034664  -0.000013   0.000006
    10  H   -0.001901   0.377043   0.000221  -0.034664   0.000006  -0.000013
    11  H    0.435564  -0.007245  -0.023526  -0.004695   0.006514  -0.010596
    12  H    0.435564  -0.007245  -0.023526  -0.004695  -0.010596   0.006514
               7          8          9         10         11         12
     1  B   -0.004720  -0.004720  -0.001901  -0.001901   0.435564   0.435564
     2  N   -0.023231  -0.023231   0.377043   0.377043  -0.007245  -0.007245
     3  N   -0.007353  -0.007353   0.000221   0.000221  -0.023526  -0.023526
     4  B    0.435707   0.435707  -0.034664  -0.034664  -0.004695  -0.004695
     5  H   -0.000895   0.000493  -0.000013   0.000006   0.006514  -0.010596
     6  H    0.000493  -0.000895   0.000006  -0.000013  -0.010596   0.006514
     7  H    0.693023  -0.032725   0.006523  -0.010671  -0.000228   0.000847
     8  H   -0.032725   0.693023  -0.010671   0.006523   0.000847  -0.000228
     9  H    0.006523  -0.010671   0.467114  -0.035181  -0.000855   0.000481
    10  H   -0.010671   0.006523  -0.035181   0.467114   0.000481  -0.000855
    11  H   -0.000228   0.000847  -0.000855   0.000481   0.692011  -0.031785
    12  H    0.000847  -0.000228   0.000481  -0.000855  -0.031785   0.692011
 Mulliken charges:
               1
     1  B    0.124144
     2  N   -0.474108
     3  N   -0.474887
     4  B    0.123742
     5  H    0.231913
     6  H    0.231913
     7  H   -0.056771
     8  H   -0.056771
     9  H    0.231899
    10  H    0.231899
    11  H   -0.056487
    12  H   -0.056487
 Sum of Mulliken charges =   0.00000
 Mulliken charges with hydrogens summed into heavy atoms:
               1
     1  B    0.011171
     2  N   -0.010309
     3  N   -0.011061
     4  B    0.010199
 Electronic spatial extent (au):  <R**2>=            361.2340
 Charge=              0.0000 electrons
 Dipole moment (field-independent basis, Debye):
    X=              0.0330    Y=              0.0344    Z=              0.0000  Tot=              0.0477
 Quadrupole moment (field-independent basis, Debye-Ang):
   XX=            -21.3007   YY=            -33.0839   ZZ=            -26.4201
   XY=              2.0658   XZ=              0.0000   YZ=              0.0000
 Traceless Quadrupole moment (field-independent basis, Debye-Ang):
   XX=              5.6342   YY=             -6.1490   ZZ=              0.5148
   XY=              2.0658   XZ=              0.0000   YZ=              0.0000
 Octapole moment (field-independent basis, Debye-Ang**2):
  XXX=              0.2177  YYY=              0.1402  ZZZ=              0.0000  XYY=              0.0985
  XXY=              0.1649  XXZ=              0.0000  XZZ=              0.0050  YZZ=              0.0093
  YYZ=              0.0000  XYZ=              0.0000
 Hexadecapole moment (field-independent basis, Debye-Ang**3):
 XXXX=           -158.4022 YYYY=           -273.7980 ZZZZ=            -65.9573 XXXY=            -25.4295
 XXXZ=              0.0000 YYYX=            -32.6583 YYYZ=              0.0000 ZZZX=              0.0000
 ZZZY=              0.0000 XXYY=            -83.2574 XXZZ=            -29.4350 YYZZ=            -59.5736
 XXYZ=              0.0000 YYXZ=              0.0000 ZZXY=             -4.9421
 N-N= 1.115856517421D+02 E-N=-6.045218424401D+02  KE= 1.633967593356D+02
 Symmetry A'   KE= 1.550129930554D+02
 Symmetry A"   KE= 8.383766280176D+00
 No NMR shielding tensors so no spin-rotation constants.
 Leave Link  601 at Thu Mar  9 18:28:09 2017, MaxMem=   563347456 cpu:         0.9
 (Enter /share/apps/g09RelD.01/g09/l701.exe)
 Compute integral first derivatives.
 ... and contract with generalized density number  0.
 R6Disp: Adding Grimme-D2 dispersion energy 1st derivatives to the gradient.
 Leave Link  701 at Thu Mar  9 18:28:09 2017, MaxMem=   563347456 cpu:         1.0
 (Enter /share/apps/g09RelD.01/g09/l702.exe)
 L702 exits ... SP integral derivatives will be done elsewhere.
 Leave Link  702 at Thu Mar  9 18:28:09 2017, MaxMem=   563347456 cpu:         0.2
 (Enter /share/apps/g09RelD.01/g09/l703.exe)
 Compute integral first derivatives, UseDBF=F ICtDFT=           0.
 Integral derivatives from FoFJK, PRISM(SPDF).
 Calling FoFJK, ICntrl=      2127 FMM=F ISym2X=1 I1Cent= 0 IOpClX= 0 NMat=1 NMatS=1 NMatT=0.
 FoFJK:  IHMeth= 1 ICntrl=    2127 DoSepK=T KAlg= 0 I1Cent=   0 FoldK=F
 IRaf=         1 NMat=   1 IRICut=       1 DoRegI=T DoRafI=F ISym2E= 1.
 FoFCou: FMM=F IPFlag=           0 FMFlag=      100000 FMFlg1=         800
         NFxFlg=           0 DoJE=F BraDBF=F KetDBF=F FulRan=T
         wScrn=  0.000000 ICntrl=    2527 IOpCl=  0 I1Cent=           0 NGrid=           0
         NMat0=    1 NMatS0=      1 NMatT0=    0 NMatD0=    1 NMtDS0=    0 NMtDT0=    0
 Petite list used in FoFCou.
 Leave Link  703 at Thu Mar  9 18:28:13 2017, MaxMem=   563347456 cpu:        17.8
 (Enter /share/apps/g09RelD.01/g09/l716.exe)
 Dipole        = 1.29912956D-02 1.35402177D-02 0.00000000D+00
 ***** Axes restored to original set *****
 -------------------------------------------------------------------
 Center     Atomic                   Forces (Hartrees/Bohr)
 Number     Number              X              Y              Z
 -------------------------------------------------------------------
      1        5          -0.008165554   -0.000174152    0.000000000
      2        7           0.007970998    0.001487607    0.000000000
      3        7          -0.006694550   -0.003529182    0.000000000
      4        5           0.005815638    0.002517818    0.000000000
      5        1          -0.000120418    0.000254984   -0.000407562
      6        1          -0.000120418    0.000254984    0.000407562
      7        1           0.000619540   -0.000211505    0.000274706
      8        1           0.000619540   -0.000211505   -0.000274706
      9        1          -0.000118452   -0.000040048    0.000036970
     10        1          -0.000118452   -0.000040048   -0.000036970
     11        1           0.000156063   -0.000154477   -0.000034416
     12        1           0.000156063   -0.000154477    0.000034416
 -------------------------------------------------------------------
 Cartesian Forces:  Max     0.008165554 RMS     0.002535973
 Leave Link  716 at Thu Mar  9 18:28:13 2017, MaxMem=   563347456 cpu:         0.2
 (Enter /share/apps/g09RelD.01/g09/l103.exe)

 GradGradGradGradGradGradGradGradGradGradGradGradGradGradGradGradGradGrad
 Berny optimization.
 FormGI is forming the generalized inverse of G from B-inverse, IUseBI=4.
 Internal  Forces:  Max     0.006293921 RMS     0.000919229
 Search for a local minimum.
 Step number   1 out of a maximum of   99 on scan point     1 out of     2
 All quantities printed in internal units (Hartrees-Bohrs-Radians)
 RMS Force = .16567D-03 SwitMx=.10000D-02 MixMth= 2
 Mixed Optimization -- En-DIIS/RFO-DIIS
 Second derivative matrix not updated -- first step.
 ITU=  0
     Eigenvalues ---    0.00739   0.02507   0.03138   0.03593   0.03620
     Eigenvalues ---    0.03973   0.04567   0.04592   0.05122   0.06203
     Eigenvalues ---    0.06978   0.07547   0.07807   0.08320   0.08968
     Eigenvalues ---    0.11109   0.11420   0.12802   0.24319   0.24399
     Eigenvalues ---    0.25035   0.25035   0.37472   0.43275   0.44758
     Eigenvalues ---    0.44842   0.46709   0.467091000.000001000.00000
     Eigenvalues --- 1000.000001000.000001000.000001000.000001000.00000
     Eigenvalues --- 1000.000001000.000001000.000001000.000001000.00000
     Eigenvalues --- 1000.000001000.000001000.000001000.000001000.00000
     Eigenvalues --- 1000.000001000.000001000.000001000.000001000.00000
     Eigenvalues --- 1000.000001000.000001000.000001000.000001000.00000
     Eigenvalues --- 1000.000001000.000001000.000001000.000001000.00000
     Eigenvalues --- 1000.000001000.000001000.000001000.000001000.00000
     Eigenvalues --- 1000.000001000.000001000.000001000.000001000.00000
     Eigenvalues --- 1000.000001000.000001000.000001000.000001000.00000
     Eigenvalues --- 1000.000001000.000001000.000001000.000001000.00000
     Eigenvalues --- 1000.000001000.000001000.000001000.000001000.00000
     Eigenvalues --- 1000.000001000.000001000.000001000.00000
 RFO step:  Lambda=-1.81505341D-05 EMin= 7.39396233D-03
 Linear search not attempted -- first point.
 Iteration  1 RMS(Cart)=  0.00096414 RMS(Int)=  0.00000368
 Iteration  2 RMS(Cart)=  0.00000224 RMS(Int)=  0.00000296
 Iteration  3 RMS(Cart)=  0.00000000 RMS(Int)=  0.00000296
 Iteration  1 RMS(Cart)=  0.00000064 RMS(Int)=  0.00000035
 ITry= 1 IFail=0 DXMaxC= 3.41D-03 DCOld= 1.00D+10 DXMaxT= 3.00D-01 DXLimC= 3.00D+00 Rises=F
 ClnCor:  largest displacement from symmetrization is 2.48D-12 for atom    12.
 Variable       Old X    -DE/DX   Delta X   Delta X   Delta X     New X
                                 (Linear)    (Quad)   (Total)
    R1        4.72989   0.00629   0.00000   0.00000   0.00000   4.72990
    R2        2.65867  -0.00172   0.00000  -0.00277  -0.00276   2.65590
    R3        5.02970   0.00227   0.00000  -0.00128  -0.00129   5.02841
    R4        2.25821   0.00012   0.00000   0.00049   0.00049   2.25869
    R5        2.25821   0.00012   0.00000   0.00049   0.00049   2.25869
    R6        2.65370   0.00039   0.00000   0.00073   0.00073   2.65442
    R7        1.90040  -0.00004   0.00000  -0.00009  -0.00009   1.90031
    R8        1.90040  -0.00004   0.00000  -0.00009  -0.00009   1.90031
    R9        4.72988   0.00334   0.00000   0.00000   0.00000   4.72988
   R10        1.90042  -0.00030   0.00000  -0.00024  -0.00024   1.90018
   R11        1.90042  -0.00030   0.00000  -0.00024  -0.00024   1.90018
   R12        2.25858  -0.00002   0.00000  -0.00010  -0.00010   2.25848
   R13        2.25858  -0.00002   0.00000  -0.00010  -0.00010   2.25848
   R14        4.94616   0.00170   0.00000   0.00509   0.00508   4.95124
   R15        4.94616   0.00170   0.00000   0.00509   0.00508   4.95124
    A1        1.73519   0.00033   0.00000   0.00085   0.00085   1.73604
    A2        1.56157  -0.00010   0.00000  -0.00097  -0.00097   1.56060
    A3        1.56157  -0.00010   0.00000  -0.00097  -0.00097   1.56060
    A4        2.07402   0.00002   0.00000   0.00080   0.00080   2.07482
    A5        2.07402   0.00002   0.00000   0.00080   0.00080   2.07482
    A6        1.81909  -0.00021   0.00000  -0.00041  -0.00041   1.81868
    A7        1.81909  -0.00021   0.00000  -0.00041  -0.00041   1.81868
    A8        2.12338  -0.00006   0.00000  -0.00144  -0.00145   2.12193
    A9        1.70800   0.00053   0.00000  -0.00079  -0.00079   1.70721
   A10        1.70800   0.00053   0.00000  -0.00079  -0.00079   1.70721
   A11        2.14540   0.00007   0.00000   0.00017   0.00017   2.14557
   A12        2.14540   0.00007   0.00000   0.00017   0.00017   2.14557
   A13        1.98727  -0.00010   0.00000  -0.00010  -0.00010   1.98717
   A14        2.14346  -0.00003   0.00000   0.00173   0.00173   2.14519
   A15        2.14346  -0.00003   0.00000   0.00173   0.00173   2.14519
   A16        1.69936  -0.00035   0.00000  -0.00023  -0.00023   1.69913
   A17        1.69936  -0.00035   0.00000  -0.00023  -0.00023   1.69913
   A18        1.99284   0.00011   0.00000  -0.00336  -0.00336   1.98947
   A19        1.81349  -0.00073   0.00000   0.00099   0.00098   1.81447
   A20        1.81349  -0.00073   0.00000   0.00099   0.00098   1.81447
   A21        1.73657   0.00097   0.00000  -0.00012  -0.00011   1.73646
   A22        2.08066  -0.00013   0.00000  -0.00233  -0.00234   2.07832
   A23        2.08066  -0.00013   0.00000  -0.00233  -0.00234   2.07832
   A24        1.55200  -0.00042   0.00000   0.00239   0.00239   1.55438
   A25        1.55200  -0.00042   0.00000   0.00239   0.00239   1.55438
   A26        2.11269   0.00024   0.00000   0.00405   0.00405   2.11674
   A27        1.51732   0.00036   0.00000   0.00011   0.00011   1.51743
   A28        1.51732   0.00036   0.00000   0.00011   0.00011   1.51743
   A29        1.51359   0.00041   0.00000  -0.00242  -0.00241   1.51118
   A30        1.51359   0.00041   0.00000  -0.00242  -0.00241   1.51118
    D1       -2.13322   0.00006   0.00000  -0.00022  -0.00022  -2.13344
    D2        2.13322  -0.00006   0.00000   0.00022   0.00022   2.13344
    D3       -0.05339   0.00009   0.00000   0.00048   0.00048  -0.05291
    D4       -2.07014  -0.00004   0.00000   0.00093   0.00093  -2.06921
    D5        2.07014   0.00004   0.00000  -0.00093  -0.00093   2.06921
    D6        0.05339  -0.00009   0.00000  -0.00048  -0.00048   0.05291
    D7       -1.61781   0.00040   0.00000   0.00058   0.00058  -1.61723
    D8        1.61781  -0.00040   0.00000  -0.00058  -0.00058   1.61723
    D9        3.01384   0.00033   0.00000   0.00105   0.00105   3.01489
   D10       -0.03372  -0.00048   0.00000  -0.00010  -0.00010  -0.03383
   D11        0.03372   0.00048   0.00000   0.00010   0.00010   0.03383
   D12       -3.01384  -0.00033   0.00000  -0.00105  -0.00105  -3.01489
   D13        3.13256  -0.00008   0.00000   0.00387   0.00387   3.13643
   D14        0.90739   0.00037   0.00000  -0.00176  -0.00176   0.90562
   D15       -0.90739  -0.00037   0.00000   0.00176   0.00176  -0.90562
   D16       -3.13256   0.00008   0.00000  -0.00387  -0.00387  -3.13643
   D17        1.62838  -0.00022   0.00000  -0.00137  -0.00137   1.62701
   D18       -3.01223  -0.00018   0.00000   0.00086   0.00085  -3.01137
   D19       -0.01420  -0.00026   0.00000  -0.00360  -0.00360  -0.01779
   D20       -1.62838   0.00022   0.00000   0.00137   0.00137  -1.62701
   D21        0.01420   0.00026   0.00000   0.00360   0.00360   0.01779
   D22        3.01223   0.00018   0.00000  -0.00086  -0.00085   3.01137
   D23        2.13218   0.00001   0.00000   0.00178   0.00178   2.13396
   D24        0.04725   0.00015   0.00000   0.00372   0.00373   0.05098
   D25       -2.06607  -0.00012   0.00000  -0.00017  -0.00017  -2.06624
   D26       -2.13218  -0.00001   0.00000  -0.00178  -0.00178  -2.13396
   D27        2.06607   0.00012   0.00000   0.00017   0.00017   2.06624
   D28       -0.04725  -0.00015   0.00000  -0.00372  -0.00373  -0.05098
   D29        1.43470  -0.00026   0.00000  -0.00185  -0.00185   1.43284
   D30       -0.02160  -0.00006   0.00000  -0.00168  -0.00168  -0.02328
   D31       -1.79351   0.00048   0.00000  -0.00056  -0.00056  -1.79407
   D32       -1.43470   0.00026   0.00000   0.00185   0.00185  -1.43284
   D33        0.02160   0.00006   0.00000   0.00168   0.00168   0.02328
   D34        1.79351  -0.00048   0.00000   0.00056   0.00056   1.79407
   D35       -0.50469   0.00059   0.00000  -0.00169  -0.00169  -0.50638
   D36       -1.76837  -0.00092   0.00000  -0.00243  -0.00242  -1.77079
   D37       -0.01803  -0.00005   0.00000  -0.00140  -0.00140  -0.01943
   D38        1.51949  -0.00081   0.00000   0.00267   0.00269   1.52218
   D39        0.50469  -0.00059   0.00000   0.00169   0.00169   0.50638
   D40        1.76837   0.00092   0.00000   0.00243   0.00242   1.77079
   D41        0.01803   0.00005   0.00000   0.00140   0.00140   0.01943
   D42       -1.51949   0.00081   0.00000  -0.00267  -0.00269  -1.52218
   D43        0.04494   0.00016   0.00000   0.00350   0.00350   0.04844
   D44       -0.04494  -0.00016   0.00000  -0.00350  -0.00350  -0.04844
         Item               Value     Threshold  Converged?
 Maximum Force            0.001109     0.002500     YES
 RMS     Force            0.000166     0.001667     YES
 Maximum Displacement     0.003413     0.010000     YES
 RMS     Displacement     0.000964     0.006667     YES
 Predicted change in Energy=-9.050424D-06
 Optimization completed.
    -- Stationary point found.
                           ----------------------------
                           !   Optimized Parameters   !
                           ! (Angstroms and Degrees)  !
 --------------------------                            --------------------------
 ! Name  Definition              Value          Derivative Info.                !
 --------------------------------------------------------------------------------
 ! R1    R(1,2)                  2.503          -DE/DX =    0.0063              !
 ! R2    R(1,3)                  1.4069         -DE/DX =   -0.0017              !
 ! R3    R(1,4)                  2.6616         -DE/DX =    0.0023              !
 ! R4    R(1,11)                 1.195          -DE/DX =    0.0001              !
 ! R5    R(1,12)                 1.195          -DE/DX =    0.0001              !
 ! R6    R(2,4)                  1.4043         -DE/DX =    0.0004              !
 ! R7    R(2,9)                  1.0056         -DE/DX =    0.0                 !
 ! R8    R(2,10)                 1.0056         -DE/DX =    0.0                 !
 ! R9    R(3,4)                  2.5029         -DE/DX =    0.0033              !
 ! R10   R(3,5)                  1.0057         -DE/DX =   -0.0003              !
 ! R11   R(3,6)                  1.0057         -DE/DX =   -0.0003              !
 ! R12   R(4,7)                  1.1952         -DE/DX =    0.0                 !
 ! R13   R(4,8)                  1.1952         -DE/DX =    0.0                 !
 ! R14   R(5,7)                  2.6174         -DE/DX =    0.0017              !
 ! R15   R(6,8)                  2.6174         -DE/DX =    0.0017              !
 ! A1    A(2,1,3)               99.4192         -DE/DX =    0.0003              !
 ! A2    A(2,1,11)              89.4715         -DE/DX =   -0.0001              !
 ! A3    A(2,1,12)              89.4715         -DE/DX =   -0.0001              !
 ! A4    A(3,1,11)             118.8325         -DE/DX =    0.0                 !
 ! A5    A(3,1,12)             118.8325         -DE/DX =    0.0                 !
 ! A6    A(4,1,11)             104.2262         -DE/DX =   -0.0002              !
 ! A7    A(4,1,12)             104.2262         -DE/DX =   -0.0002              !
 ! A8    A(11,1,12)            121.6605         -DE/DX =   -0.0001              !
 ! A9    A(1,2,9)               97.8611         -DE/DX =    0.0005              !
 ! A10   A(1,2,10)              97.8611         -DE/DX =    0.0005              !
 ! A11   A(4,2,9)              122.9224         -DE/DX =    0.0001              !
 ! A12   A(4,2,10)             122.9224         -DE/DX =    0.0001              !
 ! A13   A(9,2,10)             113.8623         -DE/DX =   -0.0001              !
 ! A14   A(1,3,5)              122.8113         -DE/DX =    0.0                 !
 ! A15   A(1,3,6)              122.8113         -DE/DX =    0.0                 !
 ! A16   A(4,3,5)               97.3662         -DE/DX =   -0.0004              !
 ! A17   A(4,3,6)               97.3662         -DE/DX =   -0.0004              !
 ! A18   A(5,3,6)              114.1812         -DE/DX =    0.0001              !
 ! A19   A(1,4,7)              103.9052         -DE/DX =   -0.0007              !
 ! A20   A(1,4,8)              103.9052         -DE/DX =   -0.0007              !
 ! A21   A(2,4,3)               99.4983         -DE/DX =    0.001               !
 ! A22   A(2,4,7)              119.213          -DE/DX =   -0.0001              !
 ! A23   A(2,4,8)              119.213          -DE/DX =   -0.0001              !
 ! A24   A(3,4,7)               88.9228         -DE/DX =   -0.0004              !
 ! A25   A(3,4,8)               88.9228         -DE/DX =   -0.0004              !
 ! A26   A(7,4,8)              121.0484         -DE/DX =    0.0002              !
 ! A27   A(3,5,7)               86.9363         -DE/DX =    0.0004              !
 ! A28   A(3,6,8)               86.9363         -DE/DX =    0.0004              !
 ! A29   A(4,7,5)               86.7225         -DE/DX =    0.0004              !
 ! A30   A(4,8,6)               86.7225         -DE/DX =    0.0004              !
 ! D1    D(3,1,2,9)           -122.2245         -DE/DX =    0.0001              !
 ! D2    D(3,1,2,10)           122.2245         -DE/DX =   -0.0001              !
 ! D3    D(11,1,2,9)            -3.0591         -DE/DX =    0.0001              !
 ! D4    D(11,1,2,10)         -118.6102         -DE/DX =    0.0                 !
 ! D5    D(12,1,2,9)           118.6102         -DE/DX =    0.0                 !
 ! D6    D(12,1,2,10)            3.0591         -DE/DX =   -0.0001              !
 ! D7    D(2,1,3,5)            -92.6937         -DE/DX =    0.0004              !
 ! D8    D(2,1,3,6)             92.6937         -DE/DX =   -0.0004              !
 ! D9    D(11,1,3,5)           172.6804         -DE/DX =    0.0003              !
 ! D10   D(11,1,3,6)            -1.9321         -DE/DX =   -0.0005              !
 ! D11   D(12,1,3,5)             1.9321         -DE/DX =    0.0005              !
 ! D12   D(12,1,3,6)          -172.6804         -DE/DX =   -0.0003              !
 ! D13   D(11,1,4,7)           179.4825         -DE/DX =   -0.0001              !
 ! D14   D(11,1,4,8)            51.9894         -DE/DX =    0.0004              !
 ! D15   D(12,1,4,7)           -51.9894         -DE/DX =   -0.0004              !
 ! D16   D(12,1,4,8)          -179.4825         -DE/DX =    0.0001              !
 ! D17   D(9,2,4,3)             93.2993         -DE/DX =   -0.0002              !
 ! D18   D(9,2,4,7)           -172.588          -DE/DX =   -0.0002              !
 ! D19   D(9,2,4,8)             -0.8135         -DE/DX =   -0.0003              !
 ! D20   D(10,2,4,3)           -93.2993         -DE/DX =    0.0002              !
 ! D21   D(10,2,4,7)             0.8135         -DE/DX =    0.0003              !
 ! D22   D(10,2,4,8)           172.588          -DE/DX =    0.0002              !
 ! D23   D(5,3,4,2)            122.1652         -DE/DX =    0.0                 !
 ! D24   D(5,3,4,7)              2.7073         -DE/DX =    0.0001              !
 ! D25   D(5,3,4,8)           -118.377          -DE/DX =   -0.0001              !
 ! D26   D(6,3,4,2)           -122.1652         -DE/DX =    0.0                 !
 ! D27   D(6,3,4,7)            118.377          -DE/DX =    0.0001              !
 ! D28   D(6,3,4,8)             -2.7073         -DE/DX =   -0.0001              !
 ! D29   D(1,3,5,7)             82.202          -DE/DX =   -0.0003              !
 ! D30   D(4,3,5,7)             -1.2374         -DE/DX =   -0.0001              !
 ! D31   D(6,3,5,7)           -102.7604         -DE/DX =    0.0005              !
 ! D32   D(1,3,6,8)            -82.202          -DE/DX =    0.0003              !
 ! D33   D(4,3,6,8)              1.2374         -DE/DX =    0.0001              !
 ! D34   D(5,3,6,8)            102.7604         -DE/DX =   -0.0005              !
 ! D35   D(1,4,7,5)            -28.9165         -DE/DX =    0.0006              !
 ! D36   D(2,4,7,5)           -101.3203         -DE/DX =   -0.0009              !
 ! D37   D(3,4,7,5)             -1.033          -DE/DX =    0.0                 !
 ! D38   D(8,4,7,5)             87.0606         -DE/DX =   -0.0008              !
 ! D39   D(1,4,8,6)             28.9165         -DE/DX =   -0.0006              !
 ! D40   D(2,4,8,6)            101.3203         -DE/DX =    0.0009              !
 ! D41   D(3,4,8,6)              1.033          -DE/DX =    0.0                 !
 ! D42   D(7,4,8,6)            -87.0606         -DE/DX =    0.0008              !
 ! D43   D(3,5,7,4)              2.5749         -DE/DX =    0.0002              !
 ! D44   D(3,6,8,4)             -2.5749         -DE/DX =   -0.0002              !
 --------------------------------------------------------------------------------
 Lowest energy point so far.  Saving SCF results.
 Iteration  1 RMS(Cart)=  0.02117183 RMS(Int)=  0.01080426
 Iteration  2 RMS(Cart)=  0.00008968 RMS(Int)=  0.01080372
 Iteration  3 RMS(Cart)=  0.00000240 RMS(Int)=  0.01080372
 Iteration  4 RMS(Cart)=  0.00000005 RMS(Int)=  0.01080372
 Iteration  1 RMS(Cart)=  0.00591567 RMS(Int)=  0.00394184
 Iteration  2 RMS(Cart)=  0.00189214 RMS(Int)=  0.00433097
 Iteration  3 RMS(Cart)=  0.00080344 RMS(Int)=  0.00479988
 Iteration  4 RMS(Cart)=  0.00044964 RMS(Int)=  0.00516408
 Iteration  5 RMS(Cart)=  0.00028588 RMS(Int)=  0.00543124
 Iteration  6 RMS(Cart)=  0.00018951 RMS(Int)=  0.00562168
 Iteration  7 RMS(Cart)=  0.00012734 RMS(Int)=  0.00575498
 Iteration  8 RMS(Cart)=  0.00008598 RMS(Int)=  0.00584720
 Iteration  9 RMS(Cart)=  0.00005816 RMS(Int)=  0.00591053
 Iteration 10 RMS(Cart)=  0.00003936 RMS(Int)=  0.00595381
 Iteration 11 RMS(Cart)=  0.00002665 RMS(Int)=  0.00598330
 Iteration 12 RMS(Cart)=  0.00001804 RMS(Int)=  0.00600335
 Iteration 13 RMS(Cart)=  0.00001222 RMS(Int)=  0.00601696
 Iteration 14 RMS(Cart)=  0.00000827 RMS(Int)=  0.00602619
 Iteration 15 RMS(Cart)=  0.00000560 RMS(Int)=  0.00603245
 Iteration 16 RMS(Cart)=  0.00000379 RMS(Int)=  0.00603670
 Iteration 17 RMS(Cart)=  0.00000257 RMS(Int)=  0.00603957
 Iteration 18 RMS(Cart)=  0.00000174 RMS(Int)=  0.00604152
 Iteration 19 RMS(Cart)=  0.00000118 RMS(Int)=  0.00604284
 Iteration 20 RMS(Cart)=  0.00000080 RMS(Int)=  0.00604373
 GradGradGradGradGradGradGradGradGradGradGradGradGradGradGradGradGradGrad

 Leave Link  103 at Thu Mar  9 18:28:14 2017, MaxMem=   563347456 cpu:         0.2
 (Enter /share/apps/g09RelD.01/g09/l202.exe)
                          Input orientation:                          
 ---------------------------------------------------------------------
 Center     Atomic      Atomic             Coordinates (Angstroms)
 Number     Number       Type             X           Y           Z
 ---------------------------------------------------------------------
      1          5           0       -0.998953   -0.930165    0.000000
      2          7           0        1.541412   -0.362808    0.000000
      3          7           0       -1.495728    0.369527    0.000000
      4          5           0        0.945937    0.920021    0.000000
      5          1           0       -1.734558    0.861201    0.844183
      6          1           0       -1.734558    0.861201   -0.844183
      7          1           0        0.792995    1.484529    1.043015
      8          1           0        0.792995    1.484529   -1.043015
      9          1           0        1.810534   -0.842869   -0.841640
     10          1           0        1.810534   -0.842869    0.841640
     11          1           0       -0.866931   -1.498668   -1.043073
     12          1           0       -0.866931   -1.498668    1.043073
 ---------------------------------------------------------------------
                    Distance matrix (angstroms):
                    1          2          3          4          5
     1  B    0.000000
     2  N    2.602950   0.000000
     3  N    1.391397   3.124186   0.000000
     4  B    2.684360   1.414299   2.502953   0.000000
     5  H    2.112523   3.597614   1.005697   2.810900   0.000000
     6  H    2.112523   3.597614   1.005697   2.810900   1.688366
     7  H    3.182720   2.249591   2.751248   1.195801   2.610861
     8  H    3.182720   2.249591   2.751248   1.195801   3.215366
     9  H    2.934144   1.005606   3.620723   2.136275   4.279432
    10  H    2.934144   1.005606   3.620723   2.136275   3.933388
    11  H    1.195252   2.859772   2.230144   3.197585   3.143802
    12  H    1.195252   2.859772   2.230144   3.197585   2.522165
                    6          7          8          9         10
     6  H    0.000000
     7  H    3.215366   0.000000
     8  H    2.610861   2.086029   0.000000
     9  H    3.933388   3.162925   2.548081   0.000000
    10  H    4.279432   2.548081   3.162925   1.683281   0.000000
    11  H    2.522165   4.000822   3.413915   2.763959   3.339317
    12  H    3.143802   3.413915   4.000822   3.339317   2.763959
                   11         12
    11  H    0.000000
    12  H    2.086146   0.000000
 Stoichiometry    B2H8N2
 Framework group  CS[SG(B2N2),X(H8)]
 Deg. of freedom    17
 Full point group                 CS      NOp   2
 RotChk:  IX=0 Diff= 5.74D-05
 Largest Abelian subgroup         CS      NOp   2
 Largest concise Abelian subgroup CS      NOp   2
                         Standard orientation:                         
 ---------------------------------------------------------------------
 Center     Atomic      Atomic             Coordinates (Angstroms)
 Number     Number       Type             X           Y           Z
 ---------------------------------------------------------------------
      1          5           0       -0.032086   -1.366028    0.000000
      2          7           0        1.334366    0.849408    0.000000
      3          7           0       -1.309651   -0.814836    0.000000
      4          5           0        0.000000    1.318141    0.000000
      5          1           0       -1.828475   -0.642776    0.844183
      6          1           0       -1.828475   -0.642776   -0.844183
      7          1           0       -0.511052    1.602544    1.043015
      8          1           0       -0.511052    1.602544   -1.043015
      9          1           0        1.866012    0.707149   -0.841640
     10          1           0        1.866012    0.707149    0.841640
     11          1           0        0.467229   -1.668203   -1.043073
     12          1           0        0.467229   -1.668203    1.043073
 ---------------------------------------------------------------------
 Rotational constants (GHZ):     12.1494014      4.6669638      3.7328882
 Leave Link  202 at Thu Mar  9 18:28:14 2017, MaxMem=   563347456 cpu:         0.1
 (Enter /share/apps/g09RelD.01/g09/l301.exe)
 Standard basis: 6-311G(d,p) (5D, 7F)
 Ernie: Thresh=  0.10000D-02 Tol=  0.10000D-05 Strict=F.
 There are    80 symmetry adapted cartesian basis functions of A'  symmetry.
 There are    44 symmetry adapted cartesian basis functions of A"  symmetry.
 There are    76 symmetry adapted basis functions of A'  symmetry.
 There are    44 symmetry adapted basis functions of A"  symmetry.
   120 basis functions,   192 primitive gaussians,   124 cartesian basis functions
    16 alpha electrons       16 beta electrons
       nuclear repulsion energy       110.8928307684 Hartrees.
 IExCor= 4639 DFT=T Ex+Corr=wB97XD ExCW=0 ScaHFX=  1.000000
 ScaDFX=  1.000000  1.000000  1.000000  1.000000 ScalE2=  1.000000  1.000000
 IRadAn=      5 IRanWt=     -1 IRanGd=            0 ICorTp=0 IEmpDi=121
  HFx wShort=  0.000000 wLong=  0.200000 cFull=  0.222036 cShort=  0.000000 cLong=  0.777964
  DFx wShort=  0.000000 wLong=  0.200000 cFull=  0.000000 cShort=  0.000000 cLong=  1.000000
 NAtoms=   12 NActive=   12 NUniq=    8 SFac= 2.25D+00 NAtFMM=   60 NAOKFM=F Big=F
 Integral buffers will be    131072 words long.
 Raffenetti 2 integral format.
 Two-electron integral symmetry is turned on.
 R6Disp:  Grimme-D2 Dispersion energy=       -0.0056986545 Hartrees.
 Nuclear repulsion after empirical dispersion term =      110.8871321139 Hartrees.
 Leave Link  301 at Thu Mar  9 18:28:14 2017, MaxMem=   563347456 cpu:         0.4
 (Enter /share/apps/g09RelD.01/g09/l302.exe)
 NPDir=0 NMtPBC=     1 NCelOv=     1 NCel=       1 NClECP=     1 NCelD=      1
         NCelK=      1 NCelE2=     1 NClLst=     1 CellRange=     0.0.
 One-electron integrals computed using PRISM.
 One-electron integral symmetry used in STVInt
 NBasis=   120 RedAO= T EigKep=  5.99D-03  NBF=    76    44
 NBsUse=   120 1.00D-06 EigRej= -1.00D+00 NBFU=    76    44
 Precomputing XC quadrature grid using
 IXCGrd= 4 IRadAn=           5 IRanWt=          -1 IRanGd=           0 AccXCQ= 0.00D+00.
 Generated NRdTot=       0 NPtTot=           0 NUsed=           0 NTot=          32
 NSgBfM=   124   124   124   124   124 MxSgAt=    12 MxSgA2=    12.
 Leave Link  302 at Thu Mar  9 18:28:14 2017, MaxMem=   563347456 cpu:         1.5
 (Enter /share/apps/g09RelD.01/g09/l303.exe)
 DipDrv:  MaxL=1.
 Leave Link  303 at Thu Mar  9 18:28:14 2017, MaxMem=   563347456 cpu:         0.3
 (Enter /share/apps/g09RelD.01/g09/l401.exe)
 Initial guess from the checkpoint file:  "AB-AB-NHscan.chk"
 B after Tr=     0.000000    0.000000    0.000000
         Rot=    1.000000    0.000000    0.000000   -0.000230 Ang=  -0.03 deg.
 Guess basis will be translated and rotated to current coordinates.
 JPrj=2 DoOrth=T DoCkMO=T.
 Initial guess orbital symmetries:
       Occupied  (A') (A') (A') (A') (A') (A') (A') (A') (A") (A")
                 (A') (A') (A') (A") (A") (A')
       Virtual   (A') (A') (A') (A') (A') (A') (A') (A') (A') (A')
                 (A') (A') (A') (A') (A') (A') (A') (A') (A') (A')
                 (A') (A') (A') (A') (A') (A') (A') (A') (A') (A')
                 (A') (A') (A') (A') (A') (A') (A') (A') (A') (A')
                 (A') (A') (A') (A') (A') (A') (A') (A') (A') (A')
                 (A') (A') (A') (A') (A') (A') (A') (A') (A') (A')
                 (A') (A') (A') (A') (A") (A") (A") (A") (A") (A")
                 (A") (A") (A") (A") (A") (A") (A") (A") (A") (A")
                 (A") (A") (A") (A") (A") (A") (A") (A") (A") (A")
                 (A") (A") (A") (A") (A") (A") (A") (A") (A") (A")
                 (A") (A") (A") (A")
 The electronic state of the initial guess is 1-A'.
 Generating alternative initial guess.
 ExpMin= 9.89D-02 ExpMax= 6.29D+03 ExpMxC= 9.49D+02 IAcc=2 IRadAn=         4 AccDes= 0.00D+00
 Harris functional with IExCor= 4639 and IRadAn=       4 diagonalized for initial guess.
 HarFok:  IExCor= 4639 AccDes= 0.00D+00 IRadAn=         4 IDoV= 1 UseB2=F ITyADJ=14
 ICtDFT=  3500011 ScaDFX=  1.000000  1.000000  1.000000  1.000000
 FoFCou: FMM=F IPFlag=           0 FMFlag=      100000 FMFlg1=           0
         NFxFlg=           0 DoJE=T BraDBF=F KetDBF=T FulRan=T
         wScrn=  0.000000 ICntrl=     500 IOpCl=  0 I1Cent=   200000004 NGrid=           0
         NMat0=    1 NMatS0=      1 NMatT0=    0 NMatD0=    1 NMtDS0=    0 NMtDT0=    0
 Petite list used in FoFCou.
 Harris En= -156.197914113113    
 Leave Link  401 at Thu Mar  9 18:28:15 2017, MaxMem=   563347456 cpu:         3.0
 (Enter /share/apps/g09RelD.01/g09/l502.exe)
 Closed shell SCF:
 Using DIIS extrapolation, IDIIS=  1040.
 Integral symmetry usage will be decided dynamically.
 Keep R1 ints in memory in symmetry-blocked form, NReq=79321962.
 IVT=       66538 IEndB=       66538 NGot=   563347456 MDV=   550002801
 LenX=   550002801 LenY=   549986984
 Requested convergence on RMS density matrix=1.00D-08 within 128 cycles.
 Requested convergence on MAX density matrix=1.00D-06.
 Requested convergence on             energy=1.00D-06.
 No special actions if energy rises.
 FoFCou: FMM=F IPFlag=           0 FMFlag=           0 FMFlg1=           0
         NFxFlg=           0 DoJE=F BraDBF=F KetDBF=F FulRan=T
         wScrn=  0.000000 ICntrl=     600 IOpCl=  0 I1Cent=           0 NGrid=           0
         NMat0=    1 NMatS0=   7260 NMatT0=    0 NMatD0=    1 NMtDS0=    0 NMtDT0=    0
 Petite list used in FoFCou.
 Integral accuracy reduced to 1.0D-05 until final iterations.

 Cycle   1  Pass 0  IDiag  1:
 E= -164.068762473650    
 DIIS: error= 2.71D-03 at cycle   1 NSaved=   1.
 NSaved= 1 IEnMin= 1 EnMin= -164.068762473650     IErMin= 1 ErrMin= 2.71D-03
 ErrMax= 2.71D-03  0.00D+00 EMaxC= 1.00D-01 BMatC= 6.41D-04 BMatP= 6.41D-04
 IDIUse=3 WtCom= 9.73D-01 WtEn= 2.71D-02
 Coeff-Com:  0.100D+01
 Coeff-En:   0.100D+01
 Coeff:      0.100D+01
 Gap=     0.758 Goal=   None    Shift=    0.000
 GapD=    0.758 DampG=2.000 DampE=1.000 DampFc=2.0000 IDamp=-1.
 RMSDP=2.27D-04 MaxDP=3.66D-03              OVMax= 1.14D-02

 Cycle   2  Pass 0  IDiag  1:
 E= -164.069848879121     Delta-E=       -0.001086405471 Rises=F Damp=F
 DIIS: error= 1.15D-03 at cycle   2 NSaved=   2.
 NSaved= 2 IEnMin= 2 EnMin= -164.069848879121     IErMin= 2 ErrMin= 1.15D-03
 ErrMax= 1.15D-03  0.00D+00 EMaxC= 1.00D-01 BMatC= 4.84D-05 BMatP= 6.41D-04
 IDIUse=3 WtCom= 9.89D-01 WtEn= 1.15D-02
 Coeff-Com: -0.545D-01 0.105D+01
 Coeff-En:   0.000D+00 0.100D+01
 Coeff:     -0.539D-01 0.105D+01
 Gap=     0.422 Goal=   None    Shift=    0.000
 RMSDP=7.13D-05 MaxDP=1.44D-03 DE=-1.09D-03 OVMax= 4.69D-03

 Cycle   3  Pass 0  IDiag  1:
 E= -164.069922870966     Delta-E=       -0.000073991846 Rises=F Damp=F
 DIIS: error= 6.26D-04 at cycle   3 NSaved=   3.
 NSaved= 3 IEnMin= 3 EnMin= -164.069922870966     IErMin= 3 ErrMin= 6.26D-04
 ErrMax= 6.26D-04  0.00D+00 EMaxC= 1.00D-01 BMatC= 3.22D-05 BMatP= 4.84D-05
 IDIUse=3 WtCom= 9.94D-01 WtEn= 6.26D-03
 Coeff-Com: -0.966D-01 0.498D+00 0.599D+00
 Coeff-En:   0.000D+00 0.000D+00 0.100D+01
 Coeff:     -0.960D-01 0.495D+00 0.601D+00
 Gap=     0.422 Goal=   None    Shift=    0.000
 RMSDP=2.80D-05 MaxDP=9.78D-04 DE=-7.40D-05 OVMax= 1.89D-03

 Cycle   4  Pass 0  IDiag  1:
 E= -164.069951349229     Delta-E=       -0.000028478262 Rises=F Damp=F
 DIIS: error= 1.55D-04 at cycle   4 NSaved=   4.
 NSaved= 4 IEnMin= 4 EnMin= -164.069951349229     IErMin= 4 ErrMin= 1.55D-04
 ErrMax= 1.55D-04  0.00D+00 EMaxC= 1.00D-01 BMatC= 1.17D-06 BMatP= 3.22D-05
 IDIUse=3 WtCom= 9.98D-01 WtEn= 1.55D-03
 Coeff-Com: -0.127D-01-0.137D-01 0.125D+00 0.902D+00
 Coeff-En:   0.000D+00 0.000D+00 0.000D+00 0.100D+01
 Coeff:     -0.127D-01-0.137D-01 0.124D+00 0.902D+00
 Gap=     0.422 Goal=   None    Shift=    0.000
 RMSDP=1.09D-05 MaxDP=1.92D-04 DE=-2.85D-05 OVMax= 7.69D-04

 Cycle   5  Pass 0  IDiag  1:
 E= -164.069953497094     Delta-E=       -0.000002147865 Rises=F Damp=F
 DIIS: error= 3.86D-05 at cycle   5 NSaved=   5.
 NSaved= 5 IEnMin= 5 EnMin= -164.069953497094     IErMin= 5 ErrMin= 3.86D-05
 ErrMax= 3.86D-05  0.00D+00 EMaxC= 1.00D-01 BMatC= 1.06D-07 BMatP= 1.17D-06
 IDIUse=1 WtCom= 1.00D+00 WtEn= 0.00D+00
 Coeff-Com:  0.734D-02-0.544D-01-0.429D-01 0.174D+00 0.916D+00
 Coeff:      0.734D-02-0.544D-01-0.429D-01 0.174D+00 0.916D+00
 Gap=     0.422 Goal=   None    Shift=    0.000
 RMSDP=4.11D-06 MaxDP=7.98D-05 DE=-2.15D-06 OVMax= 2.87D-04

 Initial convergence to 1.0D-05 achieved.  Increase integral accuracy.
 Cycle   6  Pass 1  IDiag  1:
 E= -164.069968759695     Delta-E=       -0.000015262601 Rises=F Damp=F
 DIIS: error= 3.19D-05 at cycle   1 NSaved=   1.
 NSaved= 1 IEnMin= 1 EnMin= -164.069968759695     IErMin= 1 ErrMin= 3.19D-05
 ErrMax= 3.19D-05  0.00D+00 EMaxC= 1.00D-01 BMatC= 1.42D-07 BMatP= 1.42D-07
 IDIUse=1 WtCom= 1.00D+00 WtEn= 0.00D+00
 Coeff-Com:  0.100D+01
 Coeff:      0.100D+01
 Gap=     0.422 Goal=   None    Shift=    0.000
 RMSDP=4.11D-06 MaxDP=7.98D-05 DE=-1.53D-05 OVMax= 1.01D-04

 Cycle   7  Pass 1  IDiag  1:
 E= -164.069968919264     Delta-E=       -0.000000159569 Rises=F Damp=F
 DIIS: error= 6.19D-06 at cycle   2 NSaved=   2.
 NSaved= 2 IEnMin= 2 EnMin= -164.069968919264     IErMin= 2 ErrMin= 6.19D-06
 ErrMax= 6.19D-06  0.00D+00 EMaxC= 1.00D-01 BMatC= 8.10D-09 BMatP= 1.42D-07
 IDIUse=1 WtCom= 1.00D+00 WtEn= 0.00D+00
 Coeff-Com:  0.201D-01 0.980D+00
 Coeff:      0.201D-01 0.980D+00
 Gap=     0.422 Goal=   None    Shift=    0.000
 RMSDP=1.04D-06 MaxDP=2.36D-05 DE=-1.60D-07 OVMax= 3.79D-05

 Cycle   8  Pass 1  IDiag  1:
 E= -164.069968925487     Delta-E=       -0.000000006223 Rises=F Damp=F
 DIIS: error= 5.56D-06 at cycle   3 NSaved=   3.
 NSaved= 3 IEnMin= 3 EnMin= -164.069968925487     IErMin= 3 ErrMin= 5.56D-06
 ErrMax= 5.56D-06  0.00D+00 EMaxC= 1.00D-01 BMatC= 3.60D-09 BMatP= 8.10D-09
 IDIUse=1 WtCom= 1.00D+00 WtEn= 0.00D+00
 Coeff-Com: -0.364D-01 0.389D+00 0.647D+00
 Coeff:     -0.364D-01 0.389D+00 0.647D+00
 Gap=     0.422 Goal=   None    Shift=    0.000
 RMSDP=3.00D-07 MaxDP=1.35D-05 DE=-6.22D-09 OVMax= 1.88D-05

 Cycle   9  Pass 1  IDiag  1:
 E= -164.069968928311     Delta-E=       -0.000000002824 Rises=F Damp=F
 DIIS: error= 1.52D-06 at cycle   4 NSaved=   4.
 NSaved= 4 IEnMin= 4 EnMin= -164.069968928311     IErMin= 4 ErrMin= 1.52D-06
 ErrMax= 1.52D-06  0.00D+00 EMaxC= 1.00D-01 BMatC= 2.73D-10 BMatP= 3.60D-09
 IDIUse=1 WtCom= 1.00D+00 WtEn= 0.00D+00
 Coeff-Com: -0.139D-01 0.240D-01 0.219D+00 0.771D+00
 Coeff:     -0.139D-01 0.240D-01 0.219D+00 0.771D+00
 Gap=     0.422 Goal=   None    Shift=    0.000
 RMSDP=9.85D-08 MaxDP=3.13D-06 DE=-2.82D-09 OVMax= 4.83D-06

 Cycle  10  Pass 1  IDiag  1:
 E= -164.069968928558     Delta-E=       -0.000000000247 Rises=F Damp=F
 DIIS: error= 4.25D-07 at cycle   5 NSaved=   5.
 NSaved= 5 IEnMin= 5 EnMin= -164.069968928558     IErMin= 5 ErrMin= 4.25D-07
 ErrMax= 4.25D-07  0.00D+00 EMaxC= 1.00D-01 BMatC= 1.31D-11 BMatP= 2.73D-10
 IDIUse=1 WtCom= 1.00D+00 WtEn= 0.00D+00
 Coeff-Com: -0.879D-03-0.216D-01 0.100D-01 0.190D+00 0.823D+00
 Coeff:     -0.879D-03-0.216D-01 0.100D-01 0.190D+00 0.823D+00
 Gap=     0.422 Goal=   None    Shift=    0.000
 RMSDP=3.62D-08 MaxDP=6.99D-07 DE=-2.47D-10 OVMax= 2.03D-06

 Cycle  11  Pass 1  IDiag  1:
 E= -164.069968928576     Delta-E=       -0.000000000018 Rises=F Damp=F
 DIIS: error= 1.25D-07 at cycle   6 NSaved=   6.
 NSaved= 6 IEnMin= 6 EnMin= -164.069968928576     IErMin= 6 ErrMin= 1.25D-07
 ErrMax= 1.25D-07  0.00D+00 EMaxC= 1.00D-01 BMatC= 1.65D-12 BMatP= 1.31D-11
 IDIUse=1 WtCom= 1.00D+00 WtEn= 0.00D+00
 Coeff-Com:  0.771D-03-0.831D-02-0.132D-01-0.114D-01 0.238D+00 0.794D+00
 Coeff:      0.771D-03-0.831D-02-0.132D-01-0.114D-01 0.238D+00 0.794D+00
 Gap=     0.422 Goal=   None    Shift=    0.000
 RMSDP=1.25D-08 MaxDP=2.81D-07 DE=-1.75D-11 OVMax= 8.60D-07

 Cycle  12  Pass 1  IDiag  1:
 E= -164.069968928577     Delta-E=       -0.000000000002 Rises=F Damp=F
 DIIS: error= 4.83D-08 at cycle   7 NSaved=   7.
 NSaved= 7 IEnMin= 7 EnMin= -164.069968928577     IErMin= 7 ErrMin= 4.83D-08
 ErrMax= 4.83D-08  0.00D+00 EMaxC= 1.00D-01 BMatC= 3.22D-13 BMatP= 1.65D-12
 IDIUse=1 WtCom= 1.00D+00 WtEn= 0.00D+00
 Coeff-Com:  0.447D-03-0.823D-03-0.632D-02-0.328D-01-0.163D-01 0.322D+00
 Coeff-Com:  0.734D+00
 Coeff:      0.447D-03-0.823D-03-0.632D-02-0.328D-01-0.163D-01 0.322D+00
 Coeff:      0.734D+00
 Gap=     0.422 Goal=   None    Shift=    0.000
 RMSDP=5.45D-09 MaxDP=1.06D-07 DE=-1.71D-12 OVMax= 3.87D-07

 SCF Done:  E(RwB97XD) =  -164.069968929     A.U. after   12 cycles
            NFock= 12  Conv=0.54D-08     -V/T= 2.0041
 KE= 1.633942761267D+02 PE=-6.031225534214D+02 EE= 1.647711762522D+02
 Leave Link  502 at Thu Mar  9 18:28:32 2017, MaxMem=   563347456 cpu:        66.6
 (Enter /share/apps/g09RelD.01/g09/l701.exe)
 Compute integral first derivatives.
 ... and contract with generalized density number  0.
 R6Disp: Adding Grimme-D2 dispersion energy 1st derivatives to the gradient.
 Leave Link  701 at Thu Mar  9 18:28:33 2017, MaxMem=   563347456 cpu:         1.0
 (Enter /share/apps/g09RelD.01/g09/l702.exe)
 L702 exits ... SP integral derivatives will be done elsewhere.
 Leave Link  702 at Thu Mar  9 18:28:33 2017, MaxMem=   563347456 cpu:         0.2
 (Enter /share/apps/g09RelD.01/g09/l703.exe)
 Compute integral first derivatives, UseDBF=F ICtDFT=           0.
 Integral derivatives from FoFJK, PRISM(SPDF).
 Calling FoFJK, ICntrl=      2127 FMM=F ISym2X=1 I1Cent= 0 IOpClX= 0 NMat=1 NMatS=1 NMatT=0.
 FoFJK:  IHMeth= 1 ICntrl=    2127 DoSepK=T KAlg= 0 I1Cent=   0 FoldK=F
 IRaf=         1 NMat=   1 IRICut=       1 DoRegI=T DoRafI=F ISym2E= 1.
 FoFCou: FMM=F IPFlag=           0 FMFlag=      100000 FMFlg1=         800
         NFxFlg=           0 DoJE=F BraDBF=F KetDBF=F FulRan=T
[...]
 ! D11   D(12,1,3,5)            -0.3111         -DE/DX =    0.0008              !
 ! D12   D(12,1,3,6)          -173.6877         -DE/DX =   -0.0003              !
 ! D13   D(11,1,4,7)           179.686          -DE/DX =   -0.0003              !
 ! D14   D(11,1,4,8)            52.4492         -DE/DX =    0.0004              !
 ! D15   D(12,1,4,7)           -52.4492         -DE/DX =   -0.0004              !
 ! D16   D(12,1,4,8)          -179.686          -DE/DX =    0.0003              !
 ! D17   D(9,2,4,3)             92.1334         -DE/DX =   -0.0002              !
 ! D18   D(9,2,4,7)           -173.1409         -DE/DX =   -0.0005              !
 ! D19   D(9,2,4,8)             -2.5924         -DE/DX =    0.0                 !
 ! D20   D(10,2,4,3)           -92.1334         -DE/DX =    0.0002              !
 ! D21   D(10,2,4,7)             2.5924         -DE/DX =    0.0                 !
 ! D22   D(10,2,4,8)           173.1409         -DE/DX =    0.0005              !
 ! D23   D(5,3,4,2)            122.4778         -DE/DX =   -0.0001              !
 ! D24   D(5,3,4,7)              3.231          -DE/DX =   -0.0001              !
 ! D25   D(5,3,4,8)           -118.2754         -DE/DX =   -0.0001              !
 ! D26   D(6,3,4,2)           -122.4778         -DE/DX =    0.0001              !
 ! D27   D(6,3,4,7)            118.2754         -DE/DX =    0.0001              !
 ! D28   D(6,3,4,8)             -3.231          -DE/DX =    0.0001              !
 ! D29   D(1,3,5,7)             84.0355         -DE/DX =   -0.0005              !
 ! D30   D(4,3,5,7)             -1.487          -DE/DX =    0.0                 !
 ! D31   D(6,3,5,7)           -102.0356         -DE/DX =    0.0005              !
 ! D32   D(1,3,6,8)            -84.0355         -DE/DX =    0.0005              !
 ! D33   D(4,3,6,8)              1.487          -DE/DX =    0.0                 !
 ! D34   D(5,3,6,8)            102.0356         -DE/DX =   -0.0005              !
 ! D35   D(1,4,7,5)            -28.6573         -DE/DX =    0.0005              !
 ! D36   D(2,4,7,5)           -103.6485         -DE/DX =   -0.0004              !
 ! D37   D(3,4,7,5)             -1.2427         -DE/DX =    0.0                 !
 ! D38   D(8,4,7,5)             86.0485         -DE/DX =   -0.0009              !
 ! D39   D(1,4,8,6)             28.6573         -DE/DX =   -0.0005              !
 ! D40   D(2,4,8,6)            103.6485         -DE/DX =    0.0004              !
 ! D41   D(3,4,8,6)              1.2427         -DE/DX =    0.0                 !
 ! D42   D(7,4,8,6)            -86.0485         -DE/DX =    0.0009              !
 ! D43   D(3,5,7,4)              3.0957         -DE/DX =   -0.0001              !
 ! D44   D(3,6,8,4)             -3.0957         -DE/DX =    0.0001              !
 --------------------------------------------------------------------------------
 Lowest energy point so far.  Saving SCF results.
 GradGradGradGradGradGradGradGradGradGradGradGradGradGradGradGradGradGrad

 Summary of Optimized Potential Surface Scan
                           1         2
     Eigenvalues --  -164.06901-164.07026
           R1           2.50295   2.60295
           R2           1.40691   1.40195
           R3           2.66160   2.70576
           R4           1.19499   1.19496
           R5           1.19499   1.19496
           R6           1.40428   1.40236
           R7           1.00565   1.00555
           R8           1.00565   1.00555
           R9           2.50295   2.50294
           R10          1.00566   1.00581
           R11          1.00566   1.00581
           R12          1.19519   1.19571
           R13          1.19519   1.19571
           R14          2.61739   2.59866
           R15          2.61739   2.59866
           A1          99.41916  97.08281
           A2          89.47145  89.17213
           A3          89.47145  89.17213
           A4         118.83249 119.04465
           A5         118.83249 119.04465
           A6         104.22624 103.61256
           A7         104.22624 103.61256
           A8         121.66055 121.62841
           A9          97.86112  97.85184
           A10         97.86112  97.85184
           A11        122.92245 122.99659
           A12        122.92245 122.99659
           A13        113.86234 113.88460
           A14        122.81134 122.95971
           A15        122.81134 122.95971
           A16         97.36619  96.80742
           A17         97.36619  96.80742
           A18        114.18119 113.78602
           A19        103.90518 103.19099
           A20        103.90518 103.19099
           A21         99.49832 101.58208
           A22        119.21302 118.93224
           A23        119.21302 118.93224
           A24         88.92281  88.48193
           A25         88.92281  88.48193
           A26        121.04840 121.43463
           A27         86.93630  87.49092
           A28         86.93630  87.49092
           A29         86.72253  87.14454
           A30         86.72253  87.14454
           D1        -122.22445-122.21499
           D2         122.22445 122.21499
           D3          -3.05909  -3.03991
           D4        -118.61019-118.60992
           D5         118.61019 118.60992
           D6           3.05909   3.03991
           D7         -92.69374 -93.31171
           D8          92.69374  93.31171
           D9         172.68041 173.68768
           D10         -1.93211   0.31111
           D11          1.93211  -0.31111
           D12       -172.68041-173.68768
           D13        179.48247 179.68601
           D14         51.98942  52.44922
           D15        -51.98942 -52.44922
           D16       -179.48247-179.68601
           D17         93.29929  92.13337
           D18       -172.58797-173.14086
           D19         -0.81345  -2.59240
           D20        -93.29929 -92.13337
           D21          0.81345   2.59240
           D22        172.58797 173.14086
           D23        122.16517 122.47782
           D24          2.70729   3.23103
           D25       -118.37696-118.27539
           D26       -122.16517-122.47782
           D27        118.37696 118.27539
           D28         -2.70729  -3.23103
           D29         82.20199  84.03549
           D30         -1.23743  -1.48696
           D31       -102.76038-102.03564
           D32        -82.20199 -84.03549
           D33          1.23743   1.48696
           D34        102.76038 102.03564
           D35        -28.91646 -28.65731
           D36       -101.32032-103.64854
           D37         -1.03298  -1.24274
           D38         87.06063  86.04854
           D39         28.91646  28.65731
           D40        101.32032 103.64854
           D41          1.03298   1.24274
           D42        -87.06063 -86.04854
           D43          2.57489   3.09567
           D44         -2.57489  -3.09567
 Largest change from initial coordinates is atom    1       0.045 Angstoms.
 Leave Link  103 at Thu Mar  9 18:29:46 2017, MaxMem=   563347456 cpu:         0.1
 (Enter /share/apps/g09RelD.01/g09/l202.exe)
                          Input orientation:                          
 ---------------------------------------------------------------------
 Center     Atomic      Atomic             Coordinates (Angstroms)
 Number     Number       Type             X           Y           Z
 ---------------------------------------------------------------------
      1          5           0       -1.003489   -0.945222    0.000000
      2          7           0        1.531398   -0.353854    0.000000
      3          7           0       -1.487915    0.370378    0.000000
      4          5           0        0.953096    0.923715    0.000000
      5          1           0       -1.722747    0.867039    0.842522
      6          1           0       -1.722747    0.867039   -0.842522
      7          1           0        0.793099    1.486248    1.042918
      8          1           0        0.793099    1.486248   -1.042918
      9          1           0        1.785822   -0.839790   -0.842776
     10          1           0        1.785822   -0.839790    0.842776
     11          1           0       -0.854345   -1.508526   -1.043251
     12          1           0       -0.854345   -1.508526    1.043251
 ---------------------------------------------------------------------
                    Distance matrix (angstroms):
                    1          2          3          4          5
     1  B    0.000000
     2  N    2.602953   0.000000
     3  N    1.401953   3.104958   0.000000
     4  B    2.705763   1.402361   2.502942   0.000000
     5  H    2.124021   3.576294   1.005814   2.805921   0.000000
     6  H    2.124021   3.576294   1.005814   2.805921   1.685045
     7  H    3.198039   2.240254   2.745154   1.195709   2.598664
     8  H    3.198039   2.240254   2.745154   1.195709   3.204338
     9  H    2.915758   1.005553   3.590562   2.124536   4.250124
    10  H    2.915758   1.005553   3.590562   2.124536   3.901707
    11  H    1.194959   2.848405   2.240550   3.204843   3.154928
    12  H    1.194959   2.848405   2.240550   3.204843   2.537267
                    6          7          8          9         10
     6  H    0.000000
     7  H    3.204338   0.000000
     8  H    2.598664   2.085836   0.000000
     9  H    3.901707   3.154646   2.536929   0.000000
    10  H    4.250124   2.536929   3.154646   1.685552   0.000000
    11  H    2.537267   4.004353   3.418003   2.730912   3.312822
    12  H    3.154928   3.418003   4.004353   3.312822   2.730912
                   11         12
    11  H    0.000000
    12  H    2.086502   0.000000
 Stoichiometry    B2H8N2
 Framework group  CS[SG(B2N2),X(H8)]
 Deg. of freedom    17
 Full point group                 CS      NOp   2
 RotChk:  IX=0 Diff= 1.57D-16
 Largest Abelian subgroup         CS      NOp   2
 Largest concise Abelian subgroup CS      NOp   2
                         Standard orientation:                         
 ---------------------------------------------------------------------
 Center     Atomic      Atomic             Coordinates (Angstroms)
 Number     Number       Type             X           Y           Z
 ---------------------------------------------------------------------
      1          5           0       -0.021288   -1.380061    0.000000
      2          7           0        1.319586    0.850952    0.000000
      3          7           0       -1.302794   -0.811541    0.000000
      4          5           0        0.000000    1.325618    0.000000
      5          1           0       -1.822763   -0.634200    0.842522
      6          1           0       -1.822763   -0.634200   -0.842522
      7          1           0       -0.515129    1.602537    1.042918
      8          1           0       -0.515129    1.602537   -1.042918
      9          1           0        1.845503    0.695140   -0.842776
     10          1           0        1.845503    0.695140    0.842776
     11          1           0        0.486836   -1.665308   -1.043251
     12          1           0        0.486836   -1.665308    1.043251
 ---------------------------------------------------------------------
 Rotational constants (GHZ):     12.0581874      4.6993052      3.7447183
 Leave Link  202 at Thu Mar  9 18:29:46 2017, MaxMem=   563347456 cpu:         0.1
 (Enter /share/apps/g09RelD.01/g09/l601.exe)
 Copying SCF densities to generalized density rwf, IOpCl= 0 IROHF=0.

 **********************************************************************

            Population analysis using the SCF density.

 **********************************************************************

 Orbital symmetries:
       Occupied  (A') (A') (A') (A') (A') (A') (A') (A') (A") (A")
                 (A') (A') (A') (A") (A") (A')
       Virtual   (A') (A') (A') (A') (A") (A") (A') (A') (A") (A')
                 (A") (A') (A') (A") (A') (A") (A') (A') (A') (A")
                 (A") (A') (A') (A') (A') (A') (A") (A") (A') (A')
                 (A") (A') (A") (A') (A') (A") (A') (A") (A') (A')
                 (A') (A") (A") (A') (A") (A") (A') (A') (A') (A")
                 (A") (A") (A') (A") (A') (A') (A') (A") (A") (A')
                 (A') (A") (A") (A') (A') (A') (A') (A') (A") (A")
                 (A') (A') (A') (A') (A") (A") (A') (A") (A') (A")
                 (A') (A") (A") (A') (A') (A') (A") (A') (A") (A')
                 (A') (A') (A") (A") (A') (A') (A') (A') (A") (A")
                 (A') (A') (A') (A')
 The electronic state is 1-A'.
 Alpha  occ. eigenvalues --  -14.42210 -14.41698  -6.83612  -6.83289  -0.96914
 Alpha  occ. eigenvalues --   -0.95798  -0.61872  -0.60833  -0.60152  -0.59035
 Alpha  occ. eigenvalues --   -0.48032  -0.47664  -0.41299  -0.40208  -0.39816
 Alpha  occ. eigenvalues --   -0.33897
 Alpha virt. eigenvalues --    0.08094   0.10935   0.13962   0.14381   0.15283
 Alpha virt. eigenvalues --    0.19509   0.20474   0.20842   0.23602   0.24344
 Alpha virt. eigenvalues --    0.27462   0.28442   0.34246   0.34682   0.38635
 Alpha virt. eigenvalues --    0.38786   0.45726   0.47303   0.50321   0.52165
 Alpha virt. eigenvalues --    0.55747   0.55880   0.56895   0.60177   0.63994
 Alpha virt. eigenvalues --    0.66126   0.69488   0.69996   0.78459   0.78562
 Alpha virt. eigenvalues --    0.81366   0.84440   0.86643   0.91272   0.94585
 Alpha virt. eigenvalues --    0.95773   0.97904   1.00034   1.01163   1.10816
 Alpha virt. eigenvalues --    1.21720   1.23784   1.24958   1.28383   1.30720
 Alpha virt. eigenvalues --    1.32128   1.38737   1.46562   1.64685   1.66199
 Alpha virt. eigenvalues --    1.68495   1.69791   1.71390   1.72960   1.75326
 Alpha virt. eigenvalues --    1.78627   1.80845   1.81264   1.88552   1.89672
 Alpha virt. eigenvalues --    2.00883   2.01432   2.01941   2.06978   2.07302
 Alpha virt. eigenvalues --    2.08625   2.13049   2.14799   2.20312   2.20994
 Alpha virt. eigenvalues --    2.26896   2.32266   2.46757   2.50491   2.54073
 Alpha virt. eigenvalues --    2.56216   2.56339   2.59313   2.59316   2.60581
 Alpha virt. eigenvalues --    2.66005   2.75006   2.76068   2.81084   2.83758
 Alpha virt. eigenvalues --    2.92609   2.93884   2.95720   2.96634   3.01342
 Alpha virt. eigenvalues --    3.11981   3.23100   3.34301   3.35830   3.95685
 Alpha virt. eigenvalues --    3.99191   4.75342   4.81701   4.86495   4.87273
 Alpha virt. eigenvalues --   14.76542  14.80711  35.73285  35.75068
          Condensed to atoms (all electrons):
               1          2          3          4          5          6
     1  B    3.588302   0.021121   0.478184   0.003389  -0.034390  -0.034390
     2  N    0.021121   6.292199  -0.021713   0.481129   0.000185   0.000185
     3  N    0.478184  -0.021713   6.296309   0.023244   0.376604   0.376604
     4  B    0.003389   0.481129   0.023244   3.582966  -0.002149  -0.002149
     5  H   -0.034390   0.000185   0.376604  -0.002149   0.466187  -0.035118
     6  H   -0.034390   0.000185   0.376604  -0.002149  -0.035118   0.466187
     7  H   -0.004713  -0.023707  -0.007372   0.435538  -0.000821   0.000441
     8  H   -0.004713  -0.023707  -0.007372   0.435538   0.000441  -0.000821
     9  H   -0.001285   0.377247   0.000105  -0.035122  -0.000003  -0.000001
    10  H   -0.001285   0.377247   0.000105  -0.035122  -0.000001  -0.000003
    11  H    0.434549  -0.005154  -0.023713  -0.004032   0.006513  -0.010675
    12  H    0.434549  -0.005154  -0.023713  -0.004032  -0.010675   0.006513
               7          8          9         10         11         12
     1  B   -0.004713  -0.004713  -0.001285  -0.001285   0.434549   0.434549
     2  N   -0.023707  -0.023707   0.377247   0.377247  -0.005154  -0.005154
     3  N   -0.007372  -0.007372   0.000105   0.000105  -0.023713  -0.023713
     4  B    0.435538   0.435538  -0.035122  -0.035122  -0.004032  -0.004032
     5  H   -0.000821   0.000441  -0.000003  -0.000001   0.006513  -0.010675
     6  H    0.000441  -0.000821  -0.000001  -0.000003  -0.010675   0.006513
     7  H    0.697146  -0.033092   0.006684  -0.010870  -0.000206   0.000798
     8  H   -0.033092   0.697146  -0.010870   0.006684   0.000798  -0.000206
     9  H    0.006684  -0.010870   0.470272  -0.035616  -0.000521   0.000356
    10  H   -0.010870   0.006684  -0.035616   0.470272   0.000356  -0.000521
    11  H   -0.000206   0.000798  -0.000521   0.000356   0.689224  -0.032812
    12  H    0.000798  -0.000206   0.000356  -0.000521  -0.032812   0.689224
 Mulliken charges:
               1
     1  B    0.120683
     2  N   -0.469880
     3  N   -0.467270
     4  B    0.120804
     5  H    0.233226
     6  H    0.233226
     7  H   -0.059825
     8  H   -0.059825
     9  H    0.228757
    10  H    0.228757
    11  H   -0.054326
    12  H   -0.054326
 Sum of Mulliken charges =   0.00000
 Mulliken charges with hydrogens summed into heavy atoms:
               1
     1  B    0.012031
     2  N   -0.012367
     3  N   -0.000818
     4  B    0.001154
 Electronic spatial extent (au):  <R**2>=            367.7285
 Charge=              0.0000 electrons
 Dipole moment (field-independent basis, Debye):
    X=             -0.0544    Y=             -0.0938    Z=              0.0000  Tot=              0.1084
 Quadrupole moment (field-independent basis, Debye-Ang):
   XX=            -21.2080   YY=            -33.0879   ZZ=            -26.4295
   XY=              2.1154   XZ=              0.0000   YZ=              0.0000
 Traceless Quadrupole moment (field-independent basis, Debye-Ang):
   XX=              5.7005   YY=             -6.1794   ZZ=              0.4789
   XY=              2.1154   XZ=              0.0000   YZ=              0.0000
 Octapole moment (field-independent basis, Debye-Ang**2):
  XXX=              0.3672  YYY=             -0.2309  ZZZ=              0.0000  XYY=             -0.0140
  XXY=              0.3617  XXZ=              0.0000  XZZ=              0.1223  YZZ=              0.1676
  YYZ=              0.0000  XYZ=              0.0000
 Hexadecapole moment (field-independent basis, Debye-Ang**3):
 XXXX=           -159.2329 YYYY=           -282.1209 ZZZZ=            -66.0134 XXXY=            -27.1842
 XXXZ=              0.0000 YYYX=            -35.0356 YYYZ=              0.0000 ZZZX=              0.0000
 ZZZY=              0.0000 XXYY=            -84.8505 XXZZ=            -29.6099 YYZZ=            -60.9078
 XXYZ=              0.0000 YYXZ=              0.0000 ZZXY=             -5.5150
 N-N= 1.109716504584D+02 E-N=-6.032992492779D+02  KE= 1.633984580654D+02
 Symmetry A'   KE= 1.550144116900D+02
 Symmetry A"   KE= 8.384046375341D+00
 No NMR shielding tensors so no spin-rotation constants.
 Leave Link  601 at Thu Mar  9 18:29:46 2017, MaxMem=   563347456 cpu:         0.9
 (Enter /share/apps/g09RelD.01/g09/l9999.exe)
 1\1\GINC-COMPUTE-0-6\Scan\RwB97XD\6-311G(d,p)\B2H8N2\BERTA\09-Mar-2017
 \0\\#P RwB97XD/6-311G(d,p)int(grid=ultrafine) opt(modred,loose)\\AB2-m
 ult-scan10_1.gjf\\0,1\B,-1.0034887882,-0.945221846,0.\N,1.5313978968,-
 0.3538536641,0.\N,-1.4879151748,0.370377771,0.\B,0.9530964117,0.923715
 3246,0.\H,-1.7227467327,0.8670389676,0.8425223386\H,-1.7227467327,0.86
 70389676,-0.8425223385\H,0.7930988499,1.4862480164,1.042917781\H,0.793
 0988499,1.4862480164,-1.0429177809\H,1.785822117,-0.8397901134,-0.8427
 757869\H,1.785822117,-0.8397901134,0.842775787\H,-0.8543454071,-1.5085
 261632,-1.0432510022\H,-0.8543454071,-1.5085261632,1.0432510023\\Versi
 on=AS64L-G09RevD.01\State=1-A'\HF=-164.0690104,-164.0702585\RMSD=6.108
 e-09,9.646e-09\PG=CS [SG(B2N2),X(H8)]\\@


 ...THOSE SCIENCES ARE VAIN AND FULL OF ERRORS WHICH 
 ARE NOT BORN FROM EXPERIMENT, THE MOTHER OF CERTAINTY...

                          -- LEONARDO DA VINCI, 1452-1519
 Job cpu time:       0 days  0 hours  7 minutes 38.6 seconds.
 File lengths (MBytes):  RWF=     10 Int=      0 D2E=      0 Chk=      3 Scr=      1
 Normal termination of Gaussian 09 at Thu Mar  9 18:29:47 2017.
