compute-0-9.local
 Entering Gaussian System, Link 0=g09
 Initial command:
 /share/apps/g09RelE.01/g09/l1.exe "/state/partition1/berta/Gau-24828.inp" -scrdir="/state/partition1/berta/"
 Entering Link 1 = /share/apps/g09RelE.01/g09/l1.exe PID=     24829.
  
 Copyright (c) 1988,1990,1992,1993,1995,1998,2003,2009,2015,
            Gaussian, Inc.  All Rights Reserved.
  
 This is part of the Gaussian(R) 09 program.  It is based on
 the Gaussian(R) 03 system (copyright 2003, Gaussian, Inc.),
 the Gaussian(R) 98 system (copyright 1998, Gaussian, Inc.),
 the Gaussian(R) 94 system (copyright 1995, Gaussian, Inc.),
 the Gaussian 92(TM) system (copyright 1992, Gaussian, Inc.),
 the Gaussian 90(TM) system (copyright 1990, Gaussian, Inc.),
 the Gaussian 88(TM) system (copyright 1988, Gaussian, Inc.),
 the Gaussian 86(TM) system (copyright 1986, Carnegie Mellon
 University), and the Gaussian 82(TM) system (copyright 1983,
 Carnegie Mellon University). Gaussian is a federally registered
 trademark of Gaussian, Inc.
  
 This software contains proprietary and confidential information,
 including trade secrets, belonging to Gaussian, Inc.
  
 This software is provided under written license and may be
 used, copied, transmitted, or stored only in accord with that
 written license.
  
 The following legend is applicable only to US Government
 contracts under FAR:
  
                    RESTRICTED RIGHTS LEGEND
  
 Use, reproduction and disclosure by the US Government is
 subject to restrictions as set forth in subparagraphs (a)
 and (c) of the Commercial Computer Software - Restricted
 Rights clause in FAR 52.227-19.
  
 Gaussian, Inc.
 340 Quinnipiac St., Bldg. 40, Wallingford CT 06492
  
  
 ---------------------------------------------------------------
 Warning -- This program may not be used in any manner that
 competes with the business of Gaussian, Inc. or will provide
 assistance to any competitor of Gaussian, Inc.  The licensee
 of this program is prohibited from giving any competitor of
 Gaussian, Inc. access to this program.  By using this program,
 the user acknowledges that Gaussian, Inc. is engaged in the
 business of creating and licensing software in the field of
 computational chemistry and represents and warrants to the
 licensee that it is not a competitor of Gaussian, Inc. and that
 it will not use this program in any manner prohibited above.
 ---------------------------------------------------------------
  

 Cite this work as:
 Gaussian 09, Revision E.01,
 M. J. Frisch, G. W. Trucks, H. B. Schlegel, G. E. Scuseria, 
 M. A. Robb, J. R. Cheeseman, G. Scalmani, V. Barone, B. Mennucci, 
 G. A. Petersson, H. Nakatsuji, M. Caricato, X. Li, H. P. Hratchian, 
 A. F. Izmaylov, J. Bloino, G. Zheng, J. L. Sonnenberg, M. Hada, 
 M. Ehara, K. Toyota, R. Fukuda, J. Hasegawa, M. Ishida, T. Nakajima, 
 Y. Honda, O. Kitao, H. Nakai, T. Vreven, J. A. Montgomery, Jr., 
 J. E. Peralta, F. Ogliaro, M. Bearpark, J. J. Heyd, E. Brothers, 
 K. N. Kudin, V. N. Staroverov, T. Keith, R. Kobayashi, J. Normand, 
 K. Raghavachari, A. Rendell, J. C. Burant, S. S. Iyengar, J. Tomasi, 
 M. Cossi, N. Rega, J. M. Millam, M. Klene, J. E. Knox, J. B. Cross, 
 V. Bakken, C. Adamo, J. Jaramillo, R. Gomperts, R. E. Stratmann, 
 O. Yazyev, A. J. Austin, R. Cammi, C. Pomelli, J. W. Ochterski, 
 R. L. Martin, K. Morokuma, V. G. Zakrzewski, G. A. Voth, 
 P. Salvador, J. J. Dannenberg, S. Dapprich, A. D. Daniels, 
 O. Farkas, J. B. Foresman, J. V. Ortiz, J. Cioslowski, 
 and D. J. Fox, Gaussian, Inc., Wallingford CT, 2013.
 
 ******************************************
 Gaussian 09:  ES64L-G09RevE.01 30-Nov-2015
                 9-Mar-2017 
 ******************************************
 %chk=AB-AB-NHscan.chk
 %nproc=4
 Will use up to    4 processors via shared memory.
 %mem=8605MB
 -----------------------------------------------------------
 #P RwB97XD/6-311G(d,p)int(grid=ultrafine) opt(modred,loose)
 -----------------------------------------------------------
 1/7=-1,14=-1,18=120,19=15,26=4,38=1/1,3;
 2/9=110,12=2,17=6,18=5,40=1/2;
 3/5=4,6=6,7=101,11=2,16=1,25=1,30=1,71=1,74=-58,75=-5,116=1/1,2,3;
 4//1;
 5/5=2,38=5/2;
 6/7=2,8=2,9=2,10=2,28=1/1;
 7//1,2,3,16;
 1/7=-1,14=-1,18=20,19=15,26=4/3(2);
 2/9=110/2;
 99//99;
 2/9=110/2;
 3/5=4,6=6,7=101,11=2,16=1,25=1,30=1,71=1,74=-58,75=-5,116=1/1,2,3;
 4/5=5,16=3,69=1/1;
 5/5=2,38=5/2;
 7//1,2,3,16;
 1/7=-1,14=-1,18=20,19=15,26=4/3(-5);
 2/9=110/2;
 6/7=2,8=2,9=2,10=2,19=2,28=1/1;
 99/9=1/99;
 Leave Link    1 at Thu Mar  9 15:25:02 2017, MaxMem=  1127874560 cpu:         0.3
 (Enter /share/apps/g09RelE.01/g09/l101.exe)
 --------------------
 AB2-mult-scan9_1.gjf
 --------------------
 Symbolic Z-matrix:
 Charge =  0 Multiplicity = 1
 B                     0.       -1.2939    0. 
 N                     1.29698   0.72897   0. 
 N                    -1.2965   -0.72744   0. 
 B                     0.00052   1.29541   0. 
 H                    -1.83378  -0.60906   0.84182 
 H                    -1.83378  -0.60906  -0.84182 
 H                    -0.48281   1.62546   1.04198 
 H                    -0.48281   1.62546  -1.04198 
 H                     1.83119   0.59918  -0.84202 
 H                     1.83119   0.59918   0.84202 
 H                     0.48243  -1.62469  -1.04235 
 H                     0.48243  -1.62469   1.04235 
 
 Add virtual bond connecting atoms N2         and B1         Dist= 4.54D+00.
 Add virtual bond connecting atoms B4         and N3         Dist= 4.54D+00.
 The following ModRedundant input section has been read:
 B       1       2 S   1 0.1000                                                
 B       3       4 F                                                           
 
 NAtoms=     12 NQM=       12 NQMF=       0 NMMI=      0 NMMIF=      0
                NMic=       0 NMicF=      0.
                    Isotopes and Nuclear Properties:
 (Nuclear quadrupole moments (NQMom) in fm**2, nuclear magnetic moments (NMagM)
  in nuclear magnetons)

  Atom         1           2           3           4           5           6           7           8           9          10
 IAtWgt=          11          14          14          11           1           1           1           1           1           1
 AtmWgt=  11.0093053  14.0030740  14.0030740  11.0093053   1.0078250   1.0078250   1.0078250   1.0078250   1.0078250   1.0078250
 NucSpn=           3           2           2           3           1           1           1           1           1           1
 AtZEff=   0.0000000   0.0000000   0.0000000   0.0000000   0.0000000   0.0000000   0.0000000   0.0000000   0.0000000   0.0000000
 NQMom=    4.0590000   2.0440000   2.0440000   4.0590000   0.0000000   0.0000000   0.0000000   0.0000000   0.0000000   0.0000000
 NMagM=    2.6886370   0.4037610   0.4037610   2.6886370   2.7928460   2.7928460   2.7928460   2.7928460   2.7928460   2.7928460
 AtZNuc=   5.0000000   7.0000000   7.0000000   5.0000000   1.0000000   1.0000000   1.0000000   1.0000000   1.0000000   1.0000000

  Atom        11          12
 IAtWgt=           1           1
 AtmWgt=   1.0078250   1.0078250
 NucSpn=           1           1
 AtZEff=   0.0000000   0.0000000
 NQMom=    0.0000000   0.0000000
 NMagM=    2.7928460   2.7928460
 AtZNuc=   1.0000000   1.0000000
 Leave Link  101 at Thu Mar  9 15:25:03 2017, MaxMem=  1127874560 cpu:         1.3
 (Enter /share/apps/g09RelE.01/g09/l103.exe)

 GradGradGradGradGradGradGradGradGradGradGradGradGradGradGradGradGradGrad
 Berny optimization.
 Initialization pass.
                           ----------------------------
                           !    Initial Parameters    !
                           ! (Angstroms and Degrees)  !
 --------------------------                            --------------------------
 ! Name  Definition              Value          Derivative Info.                !
 --------------------------------------------------------------------------------
 ! R1    R(1,2)                  2.4029         Scan                            !
 ! R2    R(1,3)                  1.4148         estimate D2E/DX2                !
 ! R3    R(1,11)                 1.1953         estimate D2E/DX2                !
 ! R4    R(1,12)                 1.1953         estimate D2E/DX2                !
 ! R5    R(2,4)                  1.4148         estimate D2E/DX2                !
 ! R6    R(2,9)                  1.0056         estimate D2E/DX2                !
 ! R7    R(2,10)                 1.0056         estimate D2E/DX2                !
 ! R8    R(3,4)                  2.403          Frozen                          !
 ! R9    R(3,5)                  1.0057         estimate D2E/DX2                !
 ! R10   R(3,6)                  1.0057         estimate D2E/DX2                !
 ! R11   R(4,7)                  1.1951         estimate D2E/DX2                !
 ! R12   R(4,8)                  1.1951         estimate D2E/DX2                !
 ! A1    A(2,1,3)               99.0651         estimate D2E/DX2                !
 ! A2    A(2,1,11)              90.8663         estimate D2E/DX2                !
 ! A3    A(2,1,12)              90.8663         estimate D2E/DX2                !
 ! A4    A(3,1,11)             118.7286         estimate D2E/DX2                !
 ! A5    A(3,1,12)             118.7286         estimate D2E/DX2                !
 ! A6    A(11,1,12)            121.3994         estimate D2E/DX2                !
 ! A7    A(1,2,4)               80.9347         estimate D2E/DX2                !
 ! A8    A(1,2,9)              100.2579         estimate D2E/DX2                !
 ! A9    A(1,2,10)             100.2579         estimate D2E/DX2                !
 ! A10   A(4,2,9)              122.5799         estimate D2E/DX2                !
 ! A11   A(4,2,10)             122.5799         estimate D2E/DX2                !
 ! A12   A(9,2,10)             113.7195         estimate D2E/DX2                !
 ! A13   A(1,3,4)               80.9338         estimate D2E/DX2                !
 ! A14   A(1,3,5)              122.4593         estimate D2E/DX2                !
 ! A15   A(1,3,6)              122.4593         estimate D2E/DX2                !
 ! A16   A(4,3,5)              100.9103         estimate D2E/DX2                !
 ! A17   A(4,3,6)              100.9103         estimate D2E/DX2                !
 ! A18   A(5,3,6)              113.6672         estimate D2E/DX2                !
 ! A19   A(2,4,3)               99.0664         estimate D2E/DX2                !
 ! A20   A(2,4,7)              118.7617         estimate D2E/DX2                !
 ! A21   A(2,4,8)              118.7617         estimate D2E/DX2                !
 ! A22   A(3,4,7)               90.8132         estimate D2E/DX2                !
 ! A23   A(3,4,8)               90.8132         estimate D2E/DX2                !
 ! A24   A(7,4,8)              121.3548         estimate D2E/DX2                !
 ! D1    D(3,1,2,4)              0.0            estimate D2E/DX2                !
 ! D2    D(3,1,2,9)           -121.6863         estimate D2E/DX2                !
 ! D3    D(3,1,2,10)           121.6863         estimate D2E/DX2                !
 ! D4    D(11,1,2,4)           119.2886         estimate D2E/DX2                !
 ! D5    D(11,1,2,9)            -2.3977         estimate D2E/DX2                !
 ! D6    D(11,1,2,10)         -119.025          estimate D2E/DX2                !
 ! D7    D(12,1,2,4)          -119.2886         estimate D2E/DX2                !
 ! D8    D(12,1,2,9)           119.025          estimate D2E/DX2                !
 ! D9    D(12,1,2,10)            2.3977         estimate D2E/DX2                !
 ! D10   D(2,1,3,4)              0.0            estimate D2E/DX2                !
 ! D11   D(2,1,3,5)            -97.2187         estimate D2E/DX2                !
 ! D12   D(2,1,3,6)             97.2187         estimate D2E/DX2                !
 ! D13   D(11,1,3,4)           -96.0222         estimate D2E/DX2                !
 ! D14   D(11,1,3,5)           166.759          estimate D2E/DX2                !
 ! D15   D(11,1,3,6)             1.1965         estimate D2E/DX2                !
 ! D16   D(12,1,3,4)            96.0222         estimate D2E/DX2                !
 ! D17   D(12,1,3,5)            -1.1965         estimate D2E/DX2                !
 ! D18   D(12,1,3,6)          -166.759          estimate D2E/DX2                !
 ! D19   D(1,2,4,3)              0.0            estimate D2E/DX2                !
 ! D20   D(1,2,4,7)             95.9685         estimate D2E/DX2                !
 ! D21   D(1,2,4,8)            -95.9685         estimate D2E/DX2                !
 ! D22   D(9,2,4,3)             96.4334         estimate D2E/DX2                !
 ! D23   D(9,2,4,7)           -167.5982         estimate D2E/DX2                !
 ! D24   D(9,2,4,8)              0.4649         estimate D2E/DX2                !
 ! D25   D(10,2,4,3)           -96.4334         estimate D2E/DX2                !
 ! D26   D(10,2,4,7)            -0.4649         estimate D2E/DX2                !
 ! D27   D(10,2,4,8)           167.5982         estimate D2E/DX2                !
 ! D28   D(1,3,4,2)              0.0            estimate D2E/DX2                !
 ! D29   D(1,3,4,7)           -119.3123         estimate D2E/DX2                !
 ! D30   D(1,3,4,8)            119.3123         estimate D2E/DX2                !
 ! D31   D(5,3,4,2)            121.516          estimate D2E/DX2                !
 ! D32   D(5,3,4,7)              2.2037         estimate D2E/DX2                !
 ! D33   D(5,3,4,8)           -119.1717         estimate D2E/DX2                !
 ! D34   D(6,3,4,2)           -121.516          estimate D2E/DX2                !
 ! D35   D(6,3,4,7)            119.1717         estimate D2E/DX2                !
 ! D36   D(6,3,4,8)             -2.2037         estimate D2E/DX2                !
 --------------------------------------------------------------------------------
 Trust Radius=3.00D-01 FncErr=1.00D-07 GrdErr=1.00D-06
 Number of optimizations in scan=   2
 Number of steps in this run=     82 maximum allowed number of steps=    100.
 GradGradGradGradGradGradGradGradGradGradGradGradGradGradGradGradGradGrad

 Leave Link  103 at Thu Mar  9 15:25:03 2017, MaxMem=  1127874560 cpu:         0.1
 (Enter /share/apps/g09RelE.01/g09/l202.exe)
                          Input orientation:                          
 ---------------------------------------------------------------------
 Center     Atomic      Atomic             Coordinates (Angstroms)
 Number     Number       Type             X           Y           Z
 ---------------------------------------------------------------------
      1          5           0        0.000000   -1.293902    0.000000
      2          7           0        1.296980    0.728969    0.000000
      3          7           0       -1.296501   -0.727442    0.000000
      4          5           0        0.000519    1.295406    0.000000
      5          1           0       -1.833782   -0.609056    0.841823
      6          1           0       -1.833782   -0.609056   -0.841823
      7          1           0       -0.482813    1.625459    1.041982
      8          1           0       -0.482813    1.625459   -1.041982
      9          1           0        1.831188    0.599179   -0.842020
     10          1           0        1.831188    0.599179    0.842020
     11          1           0        0.482434   -1.624686   -1.042346
     12          1           0        0.482434   -1.624686    1.042346
 ---------------------------------------------------------------------
                    Distance matrix (angstroms):
                    1          2          3          4          5
     1  B    0.000000
     2  N    2.402949   0.000000
     3  N    1.414847   2.974437   0.000000
     4  B    2.589308   1.414801   2.402951   0.000000
     5  H    2.130830   3.507228   1.005660   2.774942   0.000000
     6  H    2.130830   3.507228   1.005660   2.774942   1.683646
     7  H    3.137117   2.248796   2.698881   1.195103   2.618824
     8  H    3.137117   2.248796   2.698881   1.195103   3.219766
     9  H    2.765141   1.005595   3.500194   2.131919   4.210364
    10  H    2.765141   1.005595   3.500194   2.131919   3.858994
    11  H    1.195260   2.699937   2.248587   3.137780   3.153800
    12  H    1.195260   2.699937   2.248587   3.137780   2.537040
                    6          7          8          9         10
     6  H    0.000000
     7  H    3.219766   0.000000
     8  H    2.618824   2.083964   0.000000
     9  H    3.858994   3.155521   2.539259   0.000000
    10  H    4.210364   2.539259   3.155521   1.684040   0.000000
    11  H    2.537040   3.979895   3.390449   2.608609   3.211783
    12  H    3.153800   3.390449   3.979895   3.211783   2.608609
                   11         12
    11  H    0.000000
    12  H    2.084692   0.000000
 Stoichiometry    B2H8N2
 Framework group  CS[SG(B2N2),X(H8)]
 Deg. of freedom    17
 Full point group                 CS      NOp   2
 Largest Abelian subgroup         CS      NOp   2
 Largest concise Abelian subgroup CS      NOp   2
                         Standard orientation:                         
 ---------------------------------------------------------------------
 Center     Atomic      Atomic             Coordinates (Angstroms)
 Number     Number       Type             X           Y           Z
 ---------------------------------------------------------------------
      1          5           0        0.000000    1.293902    0.000000
      2          7           0       -1.296980   -0.728969    0.000000
      3          7           0        1.296501    0.727442    0.000000
      4          5           0       -0.000519   -1.295406    0.000000
      5          1           0        1.833782    0.609056    0.841823
      6          1           0        1.833782    0.609056   -0.841823
      7          1           0        0.482813   -1.625459    1.041982
      8          1           0        0.482813   -1.625459   -1.041982
      9          1           0       -1.831188   -0.599179   -0.842020
     10          1           0       -1.831188   -0.599179    0.842020
     11          1           0       -0.482434    1.624686   -1.042346
     12          1           0       -0.482434    1.624686    1.042346
 ---------------------------------------------------------------------
 Rotational constants (GHZ):     11.9816039      5.1708348      4.0287169
 Leave Link  202 at Thu Mar  9 15:25:03 2017, MaxMem=  1127874560 cpu:         0.0
 (Enter /share/apps/g09RelE.01/g09/l301.exe)
 Standard basis: 6-311G(d,p) (5D, 7F)
 Ernie: Thresh=  0.10000D-02 Tol=  0.10000D-05 Strict=F.
 There are    80 symmetry adapted cartesian basis functions of A'  symmetry.
 There are    44 symmetry adapted cartesian basis functions of A"  symmetry.
 There are    76 symmetry adapted basis functions of A'  symmetry.
 There are    44 symmetry adapted basis functions of A"  symmetry.
   120 basis functions,   192 primitive gaussians,   124 cartesian basis functions
    16 alpha electrons       16 beta electrons
       nuclear repulsion energy       112.6927047894 Hartrees.
 IExCor= 4639 DFT=T Ex+Corr=wB97XD ExCW=0 ScaHFX=  1.000000
 ScaDFX=  1.000000  1.000000  1.000000  1.000000 ScalE2=  1.000000  1.000000
 IRadAn=      5 IRanWt=     -1 IRanGd=            0 ICorTp=0 IEmpDi=121
  HFx wShort=  0.000000 wLong=  0.200000 cFull=  0.222036 cShort=  0.000000 cLong=  0.777964
  DFx wShort=  0.000000 wLong=  0.200000 cFull=  0.000000 cShort=  0.000000 cLong=  1.000000
 NAtoms=   12 NActive=   12 NUniq=    8 SFac= 2.25D+00 NAtFMM=   60 NAOKFM=F Big=F
 Integral buffers will be    131072 words long.
 Raffenetti 2 integral format.
 Two-electron integral symmetry is turned on.
 R6Disp:  Grimme-D2 Dispersion energy=       -0.0057437347 Hartrees.
 Nuclear repulsion after empirical dispersion term =      112.6869610547 Hartrees.
 Leave Link  301 at Thu Mar  9 15:25:03 2017, MaxMem=  1127874560 cpu:         0.3
 (Enter /share/apps/g09RelE.01/g09/l302.exe)
 NPDir=0 NMtPBC=     1 NCelOv=     1 NCel=       1 NClECP=     1 NCelD=      1
         NCelK=      1 NCelE2=     1 NClLst=     1 CellRange=     0.0.
 One-electron integrals computed using PRISM.
 One-electron integral symmetry used in STVInt
 NBasis=   120 RedAO= T EigKep=  5.79D-03  NBF=    76    44
 NBsUse=   120 1.00D-06 EigRej= -1.00D+00 NBFU=    76    44
 Precomputing XC quadrature grid using
 IXCGrd= 4 IRadAn=           5 IRanWt=          -1 IRanGd=           0 AccXCQ= 0.00D+00.
 Generated NRdTot=       0 NPtTot=           0 NUsed=           0 NTot=          32
 NSgBfM=   124   124   124   124   124 MxSgAt=    12 MxSgA2=    12.
 Leave Link  302 at Thu Mar  9 15:25:03 2017, MaxMem=  1127874560 cpu:         1.2
 (Enter /share/apps/g09RelE.01/g09/l303.exe)
 DipDrv:  MaxL=1.
 Leave Link  303 at Thu Mar  9 15:25:03 2017, MaxMem=  1127874560 cpu:         0.2
 (Enter /share/apps/g09RelE.01/g09/l401.exe)
 ExpMin= 9.89D-02 ExpMax= 6.29D+03 ExpMxC= 9.49D+02 IAcc=3 IRadAn=         5 AccDes= 0.00D+00
 Harris functional with IExCor= 4639 and IRadAn=       5 diagonalized for initial guess.
 HarFok:  IExCor= 4639 AccDes= 0.00D+00 IRadAn=         5 IDoV= 1 UseB2=F ITyADJ=14
 ICtDFT=  3500011 ScaDFX=  1.000000  1.000000  1.000000  1.000000
 FoFCou: FMM=F IPFlag=           0 FMFlag=      100000 FMFlg1=           0
         NFxFlg=           0 DoJE=T BraDBF=F KetDBF=T FulRan=T
         wScrn=  0.000000 ICntrl=     500 IOpCl=  0 I1Cent=   200000004 NGrid=           0
         NMat0=    1 NMatS0=      1 NMatT0=    0 NMatD0=    1 NMtDS0=    0 NMtDT0=    0
 Petite list used in FoFCou.
 Harris En= -156.192372050608    
 JPrj=0 DoOrth=F DoCkMO=F.
 Initial guess orbital symmetries:
       Occupied  (A') (A') (A') (A') (A') (A') (A') (A') (A") (A")
                 (A') (A') (A") (A') (A") (A')
       Virtual   (A') (A') (A') (A') (A") (A') (A") (A') (A") (A')
                 (A') (A") (A') (A") (A') (A") (A') (A') (A') (A")
                 (A') (A') (A") (A') (A') (A') (A") (A") (A") (A')
                 (A') (A") (A') (A') (A') (A") (A') (A') (A") (A')
                 (A") (A') (A") (A') (A") (A") (A') (A') (A') (A")
                 (A") (A') (A") (A') (A") (A') (A") (A') (A") (A')
                 (A') (A") (A") (A') (A') (A') (A') (A') (A") (A")
                 (A') (A') (A') (A') (A") (A") (A") (A") (A') (A')
                 (A') (A") (A") (A') (A') (A') (A') (A") (A') (A")
                 (A') (A') (A") (A") (A') (A') (A') (A') (A") (A")
                 (A') (A') (A') (A')
 The electronic state of the initial guess is 1-A'.
 Leave Link  401 at Thu Mar  9 15:25:05 2017, MaxMem=  1127874560 cpu:         5.3
 (Enter /share/apps/g09RelE.01/g09/l502.exe)
 Closed shell SCF:
 Using DIIS extrapolation, IDIIS=  1040.
 Integral symmetry usage will be decided dynamically.
 Keep R1 ints in memory in symmetry-blocked form, NReq=79321962.
 IVT=       66538 IEndB=       66538 NGot=  1127874560 MDV=  1114529905
 LenX=  1114529905 LenY=  1114514088
 Requested convergence on RMS density matrix=1.00D-08 within 128 cycles.
 Requested convergence on MAX density matrix=1.00D-06.
 Requested convergence on             energy=1.00D-06.
 No special actions if energy rises.
 FoFCou: FMM=F IPFlag=           0 FMFlag=           0 FMFlg1=           0
         NFxFlg=           0 DoJE=F BraDBF=F KetDBF=F FulRan=T
         wScrn=  0.000000 ICntrl=     600 IOpCl=  0 I1Cent=           0 NGrid=           0
         NMat0=    1 NMatS0=   7260 NMatT0=    0 NMatD0=    1 NMtDS0=    0 NMtDT0=    0
 Petite list used in FoFCou.
 Integral accuracy reduced to 1.0D-05 until final iterations.

 Cycle   1  Pass 0  IDiag  1:
 E= -164.017170453481    
 DIIS: error= 1.01D-01 at cycle   1 NSaved=   1.
 NSaved= 1 IEnMin= 1 EnMin= -164.017170453481     IErMin= 1 ErrMin= 1.01D-01
 ErrMax= 1.01D-01  0.00D+00 EMaxC= 1.00D-01 BMatC= 3.43D-01 BMatP= 3.43D-01
 IDIUse=3 WtCom= 0.00D+00 WtEn= 1.00D+00
 Coeff-Com:  0.100D+01
 Coeff-En:   0.100D+01
 Coeff:      0.100D+01
 Gap=     0.433 Goal=   None    Shift=    0.000
 GapD=    0.433 DampG=2.000 DampE=0.250 DampFc=0.5000 IDamp=-1.
 Damping current iteration by 5.00D-01
 RMSDP=1.48D-03 MaxDP=2.44D-02              OVMax= 8.11D-02

 Cycle   2  Pass 0  IDiag  1:
 E= -164.042169860773     Delta-E=       -0.024999407292 Rises=F Damp=T
 DIIS: error= 4.83D-02 at cycle   2 NSaved=   2.
 NSaved= 2 IEnMin= 2 EnMin= -164.042169860773     IErMin= 2 ErrMin= 4.83D-02
 ErrMax= 4.83D-02  0.00D+00 EMaxC= 1.00D-01 BMatC= 7.82D-02 BMatP= 3.43D-01
 IDIUse=3 WtCom= 5.17D-01 WtEn= 4.83D-01
 Coeff-Com: -0.886D+00 0.189D+01
 Coeff-En:   0.000D+00 0.100D+01
 Coeff:     -0.458D+00 0.146D+01
 Gap=     0.416 Goal=   None    Shift=    0.000
 RMSDP=6.34D-04 MaxDP=1.19D-02 DE=-2.50D-02 OVMax= 1.42D-02

 Cycle   3  Pass 0  IDiag  1:
 E= -164.065905360834     Delta-E=       -0.023735500061 Rises=F Damp=F
 DIIS: error= 2.20D-03 at cycle   3 NSaved=   3.
 NSaved= 3 IEnMin= 3 EnMin= -164.065905360834     IErMin= 3 ErrMin= 2.20D-03
 ErrMax= 2.20D-03  0.00D+00 EMaxC= 1.00D-01 BMatC= 1.71D-04 BMatP= 7.82D-02
 IDIUse=3 WtCom= 9.78D-01 WtEn= 2.20D-02
 Coeff-Com: -0.113D+00 0.255D+00 0.859D+00
 Coeff-En:   0.000D+00 0.000D+00 0.100D+01
 Coeff:     -0.111D+00 0.249D+00 0.862D+00
 Gap=     0.413 Goal=   None    Shift=    0.000
 RMSDP=8.51D-05 MaxDP=1.23D-03 DE=-2.37D-02 OVMax= 8.00D-03

 Cycle   4  Pass 0  IDiag  1:
 E= -164.066084306081     Delta-E=       -0.000178945247 Rises=F Damp=F
 DIIS: error= 4.77D-04 at cycle   4 NSaved=   4.
 NSaved= 4 IEnMin= 4 EnMin= -164.066084306081     IErMin= 4 ErrMin= 4.77D-04
 ErrMax= 4.77D-04  0.00D+00 EMaxC= 1.00D-01 BMatC= 1.64D-05 BMatP= 1.71D-04
 IDIUse=3 WtCom= 9.95D-01 WtEn= 4.77D-03
 Coeff-Com:  0.134D-01-0.256D-01 0.126D+00 0.886D+00
 Coeff-En:   0.000D+00 0.000D+00 0.000D+00 0.100D+01
 Coeff:      0.133D-01-0.255D-01 0.125D+00 0.887D+00
 Gap=     0.412 Goal=   None    Shift=    0.000
 RMSDP=3.33D-05 MaxDP=8.49D-04 DE=-1.79D-04 OVMax= 1.28D-03

 Cycle   5  Pass 0  IDiag  1:
 E= -164.066101764212     Delta-E=       -0.000017458132 Rises=F Damp=F
 DIIS: error= 3.47D-04 at cycle   5 NSaved=   5.
 NSaved= 5 IEnMin= 5 EnMin= -164.066101764212     IErMin= 5 ErrMin= 3.47D-04
 ErrMax= 3.47D-04  0.00D+00 EMaxC= 1.00D-01 BMatC= 4.51D-06 BMatP= 1.64D-05
 IDIUse=3 WtCom= 9.97D-01 WtEn= 3.47D-03
 Coeff-Com:  0.236D-01-0.511D-01-0.596D-01 0.363D+00 0.724D+00
 Coeff-En:   0.000D+00 0.000D+00 0.000D+00 0.000D+00 0.100D+01
 Coeff:      0.235D-01-0.509D-01-0.594D-01 0.362D+00 0.725D+00
 Gap=     0.413 Goal=   None    Shift=    0.000
 RMSDP=1.51D-05 MaxDP=2.73D-04 DE=-1.75D-05 OVMax= 1.27D-03

 Cycle   6  Pass 0  IDiag  1:
 E= -164.066107030311     Delta-E=       -0.000005266099 Rises=F Damp=F
 DIIS: error= 4.66D-05 at cycle   6 NSaved=   6.
 NSaved= 6 IEnMin= 6 EnMin= -164.066107030311     IErMin= 6 ErrMin= 4.66D-05
 ErrMax= 4.66D-05  0.00D+00 EMaxC= 1.00D-01 BMatC= 1.80D-07 BMatP= 4.51D-06
 IDIUse=1 WtCom= 1.00D+00 WtEn= 0.00D+00
 Coeff-Com:  0.198D-02-0.430D-02-0.108D-01-0.569D-01 0.773D-01 0.993D+00
 Coeff:      0.198D-02-0.430D-02-0.108D-01-0.569D-01 0.773D-01 0.993D+00
 Gap=     0.413 Goal=   None    Shift=    0.000
 RMSDP=4.65D-06 MaxDP=9.50D-05 DE=-5.27D-06 OVMax= 2.68D-04

 Initial convergence to 1.0D-05 achieved.  Increase integral accuracy.
 Cycle   7  Pass 1  IDiag  1:
 E= -164.066177137255     Delta-E=       -0.000070106944 Rises=F Damp=F
 DIIS: error= 3.88D-05 at cycle   1 NSaved=   1.
 NSaved= 1 IEnMin= 1 EnMin= -164.066177137255     IErMin= 1 ErrMin= 3.88D-05
 ErrMax= 3.88D-05  0.00D+00 EMaxC= 1.00D-01 BMatC= 1.87D-07 BMatP= 1.87D-07
 IDIUse=1 WtCom= 1.00D+00 WtEn= 0.00D+00
 Coeff-Com:  0.100D+01
 Coeff:      0.100D+01
 Gap=     0.413 Goal=   None    Shift=    0.000
 RMSDP=4.65D-06 MaxDP=9.50D-05 DE=-7.01D-05 OVMax= 1.00D-04

 Cycle   8  Pass 1  IDiag  1:
 E= -164.066177333393     Delta-E=       -0.000000196137 Rises=F Damp=F
 DIIS: error= 6.84D-06 at cycle   2 NSaved=   2.
 NSaved= 2 IEnMin= 2 EnMin= -164.066177333393     IErMin= 2 ErrMin= 6.84D-06
 ErrMax= 6.84D-06  0.00D+00 EMaxC= 1.00D-01 BMatC= 7.28D-09 BMatP= 1.87D-07
 IDIUse=1 WtCom= 1.00D+00 WtEn= 0.00D+00
 Coeff-Com: -0.691D-01 0.107D+01
 Coeff:     -0.691D-01 0.107D+01
 Gap=     0.413 Goal=   None    Shift=    0.000
 RMSDP=1.09D-06 MaxDP=1.89D-05 DE=-1.96D-07 OVMax= 3.82D-05

 Cycle   9  Pass 1  IDiag  1:
 E= -164.066177341473     Delta-E=       -0.000000008081 Rises=F Damp=F
 DIIS: error= 5.10D-06 at cycle   3 NSaved=   3.
 NSaved= 3 IEnMin= 3 EnMin= -164.066177341473     IErMin= 3 ErrMin= 5.10D-06
 ErrMax= 5.10D-06  0.00D+00 EMaxC= 1.00D-01 BMatC= 3.16D-09 BMatP= 7.28D-09
 IDIUse=1 WtCom= 1.00D+00 WtEn= 0.00D+00
 Coeff-Com: -0.581D-01 0.434D+00 0.624D+00
 Coeff:     -0.581D-01 0.434D+00 0.624D+00
 Gap=     0.413 Goal=   None    Shift=    0.000
 RMSDP=3.11D-07 MaxDP=1.16D-05 DE=-8.08D-09 OVMax= 1.53D-05

 Cycle  10  Pass 1  IDiag  1:
 E= -164.066177344219     Delta-E=       -0.000000002746 Rises=F Damp=F
 DIIS: error= 1.53D-06 at cycle   4 NSaved=   4.
 NSaved= 4 IEnMin= 4 EnMin= -164.066177344219     IErMin= 4 ErrMin= 1.53D-06
 ErrMax= 1.53D-06  0.00D+00 EMaxC= 1.00D-01 BMatC= 1.72D-10 BMatP= 3.16D-09
 IDIUse=1 WtCom= 1.00D+00 WtEn= 0.00D+00
 Coeff-Com: -0.122D-01 0.420D-01 0.182D+00 0.788D+00
 Coeff:     -0.122D-01 0.420D-01 0.182D+00 0.788D+00
 Gap=     0.413 Goal=   None    Shift=    0.000
 RMSDP=8.77D-08 MaxDP=2.54D-06 DE=-2.75D-09 OVMax= 4.77D-06

 Cycle  11  Pass 1  IDiag  1:
 E= -164.066177344412     Delta-E=       -0.000000000193 Rises=F Damp=F
 DIIS: error= 4.37D-07 at cycle   5 NSaved=   5.
 NSaved= 5 IEnMin= 5 EnMin= -164.066177344412     IErMin= 5 ErrMin= 4.37D-07
 ErrMax= 4.37D-07  0.00D+00 EMaxC= 1.00D-01 BMatC= 2.36D-11 BMatP= 1.72D-10
 IDIUse=1 WtCom= 1.00D+00 WtEn= 0.00D+00
 Coeff-Com:  0.491D-02-0.540D-01-0.398D-01 0.237D+00 0.852D+00
 Coeff:      0.491D-02-0.540D-01-0.398D-01 0.237D+00 0.852D+00
 Gap=     0.413 Goal=   None    Shift=    0.000
 RMSDP=4.17D-08 MaxDP=7.59D-07 DE=-1.93D-10 OVMax= 2.69D-06

 Cycle  12  Pass 1  IDiag  1:
 E= -164.066177344445     Delta-E=       -0.000000000033 Rises=F Damp=F
 DIIS: error= 1.12D-07 at cycle   6 NSaved=   6.
 NSaved= 6 IEnMin= 6 EnMin= -164.066177344445     IErMin= 6 ErrMin= 1.12D-07
 ErrMax= 1.12D-07  0.00D+00 EMaxC= 1.00D-01 BMatC= 1.36D-12 BMatP= 2.36D-11
 IDIUse=1 WtCom= 1.00D+00 WtEn= 0.00D+00
 Coeff-Com:  0.205D-02-0.170D-01-0.208D-01 0.148D-01 0.224D+00 0.797D+00
 Coeff:      0.205D-02-0.170D-01-0.208D-01 0.148D-01 0.224D+00 0.797D+00
 Gap=     0.413 Goal=   None    Shift=    0.000
 RMSDP=9.43D-09 MaxDP=3.22D-07 DE=-3.29D-11 OVMax= 6.16D-07

 SCF Done:  E(RwB97XD) =  -164.066177344     A.U. after   12 cycles
            NFock= 12  Conv=0.94D-08     -V/T= 2.0042
 KE= 1.633867971502D+02 PE=-6.067240189291D+02 EE= 1.665840833797D+02
 Leave Link  502 at Thu Mar  9 15:25:19 2017, MaxMem=  1127874560 cpu:        56.5
 (Enter /share/apps/g09RelE.01/g09/l601.exe)
 Copying SCF densities to generalized density rwf, IOpCl= 0 IROHF=0.

 **********************************************************************

            Population analysis using the SCF density.

 **********************************************************************

 Orbital symmetries:
       Occupied  (A') (A') (A') (A') (A') (A') (A') (A') (A") (A")
                 (A') (A') (A') (A") (A") (A')
       Virtual   (A') (A') (A') (A') (A") (A") (A') (A') (A") (A')
                 (A") (A') (A') (A") (A') (A") (A') (A') (A') (A")
                 (A") (A') (A') (A') (A') (A') (A") (A") (A') (A')
                 (A") (A") (A') (A') (A') (A") (A') (A') (A") (A')
                 (A") (A') (A") (A') (A") (A") (A') (A') (A') (A")
                 (A") (A") (A') (A") (A') (A') (A') (A") (A") (A')
                 (A') (A") (A") (A') (A') (A') (A') (A') (A") (A")
                 (A') (A') (A') (A') (A") (A") (A") (A') (A") (A')
                 (A') (A") (A") (A') (A') (A') (A') (A") (A") (A')
                 (A') (A') (A") (A") (A') (A') (A') (A') (A") (A")
                 (A') (A') (A') (A')
 The electronic state is 1-A'.
 Alpha  occ. eigenvalues --  -14.41773 -14.41772  -6.83798  -6.83771  -0.96926
 Alpha  occ. eigenvalues --   -0.95592  -0.62071  -0.60518  -0.60094  -0.58807
 Alpha  occ. eigenvalues --   -0.47796  -0.47779  -0.41837  -0.40143  -0.39826
 Alpha  occ. eigenvalues --   -0.33000
 Alpha virt. eigenvalues --    0.08289   0.11051   0.14367   0.14951   0.15302
 Alpha virt. eigenvalues --    0.19516   0.20610   0.20870   0.23675   0.24466
 Alpha virt. eigenvalues --    0.27315   0.28327   0.34119   0.34463   0.39008
 Alpha virt. eigenvalues --    0.39451   0.46039   0.47456   0.50954   0.52428
 Alpha virt. eigenvalues --    0.55614   0.55705   0.56185   0.60148   0.63362
 Alpha virt. eigenvalues --    0.66175   0.68455   0.70073   0.78217   0.78753
 Alpha virt. eigenvalues --    0.79953   0.83345   0.83822   0.91491   0.95068
 Alpha virt. eigenvalues --    0.98943   1.00192   1.00546   1.01814   1.13090
 Alpha virt. eigenvalues --    1.23001   1.24245   1.25752   1.30278   1.31694
 Alpha virt. eigenvalues --    1.33473   1.39543   1.47032   1.64309   1.67521
 Alpha virt. eigenvalues --    1.67578   1.69866   1.72909   1.73764   1.74609
 Alpha virt. eigenvalues --    1.78628   1.81462   1.81645   1.89236   1.92365
 Alpha virt. eigenvalues --    2.00881   2.02432   2.02575   2.06673   2.08785
 Alpha virt. eigenvalues --    2.11599   2.14991   2.17789   2.18988   2.20421
 Alpha virt. eigenvalues --    2.28976   2.31832   2.48034   2.51674   2.53151
 Alpha virt. eigenvalues --    2.56979   2.59905   2.60001   2.61385   2.63342
 Alpha virt. eigenvalues --    2.63798   2.75571   2.76004   2.82430   2.82508
 Alpha virt. eigenvalues --    2.92467   2.94890   2.98756   3.01473   3.03626
 Alpha virt. eigenvalues --    3.11205   3.23308   3.33092   3.34419   3.96367
 Alpha virt. eigenvalues --    4.00726   4.72954   4.82904   4.86793   4.87256
 Alpha virt. eigenvalues --   14.78071  14.79071  35.73070  35.75657
          Condensed to atoms (all electrons):
               1          2          3          4          5          6
     1  B    3.583541   0.036382   0.455111  -0.000314  -0.034547  -0.034547
     2  N    0.036382   6.340826  -0.031414   0.455648   0.000526   0.000526
     3  N    0.455111  -0.031414   6.341749   0.035790   0.376906   0.376906
     4  B   -0.000314   0.455648   0.035790   3.581058  -0.002113  -0.002113
     5  H   -0.034547   0.000526   0.376906  -0.002113   0.466037  -0.034795
     6  H   -0.034547   0.000526   0.376906  -0.002113  -0.034795   0.466037
     7  H   -0.004938  -0.023068  -0.009683   0.436477  -0.001285   0.000700
     8  H   -0.004938  -0.023068  -0.009683   0.436477   0.000700  -0.001285
     9  H   -0.002189   0.376917   0.000519  -0.034507  -0.000044   0.000009
    10  H   -0.002189   0.376917   0.000519  -0.034507   0.000009  -0.000044
    11  H    0.436556  -0.009775  -0.023149  -0.004920   0.006345  -0.010475
    12  H    0.436556  -0.009775  -0.023149  -0.004920  -0.010475   0.006345
               7          8          9         10         11         12
     1  B   -0.004938  -0.004938  -0.002189  -0.002189   0.436556   0.436556
     2  N   -0.023068  -0.023068   0.376917   0.376917  -0.009775  -0.009775
     3  N   -0.009683  -0.009683   0.000519   0.000519  -0.023149  -0.023149
     4  B    0.436477   0.436477  -0.034507  -0.034507  -0.004920  -0.004920
     5  H   -0.001285   0.000700  -0.000044   0.000009   0.006345  -0.010475
     6  H    0.000700  -0.001285   0.000009  -0.000044  -0.010475   0.006345
     7  H    0.690806  -0.029469   0.006329  -0.010410  -0.000337   0.001028
     8  H   -0.029469   0.690806  -0.010410   0.006329   0.001028  -0.000337
     9  H    0.006329  -0.010410   0.465880  -0.034807  -0.001326   0.000702
    10  H   -0.010410   0.006329  -0.034807   0.465880   0.000702  -0.001326
    11  H   -0.000337   0.001028  -0.001326   0.000702   0.690396  -0.029333
    12  H    0.001028  -0.000337   0.000702  -0.001326  -0.029333   0.690396
 Mulliken charges:
               1
     1  B    0.135515
     2  N   -0.490642
     3  N   -0.490423
     4  B    0.137943
     5  H    0.232737
     6  H    0.232737
     7  H   -0.056150
     8  H   -0.056150
     9  H    0.232929
    10  H    0.232929
    11  H   -0.055712
    12  H   -0.055712
 Sum of Mulliken charges =  -0.00000
 Mulliken charges with hydrogens summed into heavy atoms:
               1
     1  B    0.024091
     2  N   -0.024785
     3  N   -0.024949
     4  B    0.025642
 Electronic spatial extent (au):  <R**2>=            350.1785
 Charge=             -0.0000 electrons
 Dipole moment (field-independent basis, Debye):
    X=              0.0090    Y=              0.0302    Z=             -0.0000  Tot=              0.0315
 Quadrupole moment (field-independent basis, Debye-Ang):
   XX=            -21.1046   YY=            -32.9708   ZZ=            -26.4569
   XY=              2.2880   XZ=              0.0000   YZ=              0.0000
 Traceless Quadrupole moment (field-independent basis, Debye-Ang):
   XX=              5.7395   YY=             -6.1267   ZZ=              0.3872
   XY=              2.2880   XZ=              0.0000   YZ=              0.0000
 Octapole moment (field-independent basis, Debye-Ang**2):
  XXX=              0.1123  YYY=              0.0502  ZZZ=              0.0000  XYY=              0.0892
  XXY=              0.1562  XXZ=              0.0000  XZZ=              0.0074  YZZ=              0.0327
  YYZ=              0.0000  XYZ=             -0.0000
 Hexadecapole moment (field-independent basis, Debye-Ang**3):
 XXXX=           -155.6522 YYYY=           -259.2898 ZZZZ=            -65.9733 XXXY=            -21.4279
 XXXZ=              0.0000 YYYX=            -27.7276 YYYZ=             -0.0000 ZZZX=              0.0000
 ZZZY=              0.0000 XXYY=            -79.4001 XXZZ=            -29.1586 YYZZ=            -57.2026
 XXYZ=              0.0000 YYXZ=              0.0000 ZZXY=             -4.1153
 N-N= 1.126869610547D+02 E-N=-6.067240268596D+02  KE= 1.633867971502D+02
 Symmetry A'   KE= 1.550033093691D+02
 Symmetry A"   KE= 8.383487781148D+00
 No NMR shielding tensors so no spin-rotation constants.
 Leave Link  601 at Thu Mar  9 15:25:19 2017, MaxMem=  1127874560 cpu:         0.8
 (Enter /share/apps/g09RelE.01/g09/l701.exe)
 Compute integral first derivatives.
 ... and contract with generalized density number  0.
 R6Disp: Adding Grimme-D2 dispersion energy 1st derivatives to the gradient.
 Leave Link  701 at Thu Mar  9 15:25:19 2017, MaxMem=  1127874560 cpu:         0.8
 (Enter /share/apps/g09RelE.01/g09/l702.exe)
 L702 exits ... SP integral derivatives will be done elsewhere.
 Leave Link  702 at Thu Mar  9 15:25:20 2017, MaxMem=  1127874560 cpu:         0.1
 (Enter /share/apps/g09RelE.01/g09/l703.exe)
 Compute integral first derivatives, UseDBF=F ICtDFT=           0.
 Integral derivatives from FoFJK, PRISM(SPDF).
 Calling FoFJK, ICntrl=      2127 FMM=F ISym2X=1 I1Cent= 0 IOpClX= 0 NMat=1 NMatS=1 NMatT=0.
 FoFJK:  IHMeth= 1 ICntrl=    2127 DoSepK=T KAlg= 0 I1Cent=   0 FoldK=F
 IRaf=         1 NMat=   1 IRICut=       1 DoRegI=T DoRafI=F ISym2E= 1.
 FoFCou: FMM=F IPFlag=           0 FMFlag=      100000 FMFlg1=         800
         NFxFlg=           0 DoJE=F BraDBF=F KetDBF=F FulRan=T
         wScrn=  0.000000 ICntrl=    2527 IOpCl=  0 I1Cent=           0 NGrid=           0
         NMat0=    1 NMatS0=      1 NMatT0=    0 NMatD0=    1 NMtDS0=    0 NMtDT0=    0
 Petite list used in FoFCou.
 Leave Link  703 at Thu Mar  9 15:25:25 2017, MaxMem=  1127874560 cpu:        19.7
 (Enter /share/apps/g09RelE.01/g09/l716.exe)
 Dipole        = 3.54522043D-03 1.18645949D-02 0.00000000D+00
 ***** Axes restored to original set *****
 -------------------------------------------------------------------
 Center     Atomic                   Forces (Hartrees/Bohr)
 Number     Number              X              Y              Z
 -------------------------------------------------------------------
      1        5          -0.003681111   -0.005656129   -0.000000000
      2        7           0.004065729    0.006605316   -0.000000000
      3        7          -0.004328503   -0.007052878    0.000000000
      4        5           0.003600838    0.005520587   -0.000000000
      5        1           0.000156834    0.000433519    0.000014164
      6        1           0.000156834    0.000433519   -0.000014164
      7        1           0.000031607    0.000055987    0.000032143
      8        1           0.000031607    0.000055987   -0.000032143
      9        1          -0.000086879   -0.000209500   -0.000005618
     10        1          -0.000086879   -0.000209500    0.000005618
     11        1           0.000069961    0.000011546    0.000047480
     12        1           0.000069961    0.000011546   -0.000047480
 -------------------------------------------------------------------
 Cartesian Forces:  Max     0.007052878 RMS     0.002461808
 Leave Link  716 at Thu Mar  9 15:25:25 2017, MaxMem=  1127874560 cpu:         0.2
 (Enter /share/apps/g09RelE.01/g09/l103.exe)

 GradGradGradGradGradGradGradGradGradGradGradGradGradGradGradGradGradGrad
 Berny optimization.
 FormGI is forming the generalized inverse of G from B-inverse, IUseBI=4.
 Internal  Forces:  Max     0.007020083 RMS     0.001171734
 Search for a local minimum.
 Step number   1 out of a maximum of   82 on scan point     1 out of     2
 All quantities printed in internal units (Hartrees-Bohrs-Radians)
 RMS Force = .80443D-04 SwitMx=.10000D-02 MixMth= 2
 Mixed Optimization -- En-DIIS/RFO-DIIS
 Second derivative matrix not updated -- first step.
 ITU=  0
     Eigenvalues ---    0.00556   0.02666   0.03750   0.04027   0.04187
     Eigenvalues ---    0.04468   0.04753   0.04879   0.06793   0.07085
     Eigenvalues ---    0.07980   0.08175   0.08249   0.08252   0.08367
     Eigenvalues ---    0.08780   0.09030   0.21855   0.25015   0.25015
     Eigenvalues ---    0.25026   0.25026   0.40440   0.43249   0.46707
     Eigenvalues ---    0.46707   0.46718   0.467181000.000001000.00000
     Eigenvalues --- 1000.000001000.000001000.000001000.000001000.00000
     Eigenvalues --- 1000.000001000.000001000.000001000.000001000.00000
     Eigenvalues --- 1000.000001000.000001000.000001000.000001000.00000
     Eigenvalues --- 1000.000001000.000001000.000001000.000001000.00000
     Eigenvalues --- 1000.000001000.000001000.000001000.000001000.00000
     Eigenvalues --- 1000.000001000.000001000.000001000.000001000.00000
     Eigenvalues --- 1000.000001000.000001000.000001000.000001000.00000
     Eigenvalues --- 1000.000001000.000001000.000001000.000001000.00000
     Eigenvalues --- 1000.000001000.00000
 RFO step:  Lambda=-9.77806449D-06 EMin= 5.56421782D-03
 Linear search not attempted -- first point.
 Iteration  1 RMS(Cart)=  0.00100029 RMS(Int)=  0.00000344
 Iteration  2 RMS(Cart)=  0.00000208 RMS(Int)=  0.00000280
 Iteration  3 RMS(Cart)=  0.00000000 RMS(Int)=  0.00000280
 Iteration  1 RMS(Cart)=  0.00000007 RMS(Int)=  0.00000003
 ITry= 1 IFail=0 DXMaxC= 3.87D-03 DCOld= 1.00D+10 DXMaxT= 3.00D-01 DXLimC= 3.00D+00 Rises=F
 ClnCor:  largest displacement from symmetrization is 1.17D-10 for atom     8.
 Variable       Old X    -DE/DX   Delta X   Delta X   Delta X     New X
                                 (Linear)    (Quad)   (Total)
    R1        4.54092   0.00702   0.00000   0.00000   0.00000   4.54092
    R2        2.67367   0.00012   0.00000   0.00035   0.00035   2.67402
    R3        2.25871  -0.00002   0.00000  -0.00008  -0.00008   2.25864
    R4        2.25871  -0.00002   0.00000  -0.00008  -0.00008   2.25864
    R5        2.67359  -0.00002   0.00000  -0.00012  -0.00012   2.67347
    R6        1.90030  -0.00001   0.00000  -0.00002  -0.00002   1.90028
    R7        1.90030  -0.00001   0.00000  -0.00002  -0.00002   1.90028
    R8        4.54092   0.00701   0.00000   0.00000  -0.00000   4.54092
    R9        1.90042  -0.00002   0.00000  -0.00004  -0.00004   1.90038
   R10        1.90042  -0.00002   0.00000  -0.00004  -0.00004   1.90038
   R11        2.25842   0.00003   0.00000   0.00011   0.00011   2.25853
   R12        2.25842   0.00003   0.00000   0.00011   0.00011   2.25853
    A1        1.72901   0.00005   0.00000   0.00089   0.00089   1.72990
    A2        1.58592  -0.00004   0.00000  -0.00051  -0.00051   1.58540
    A3        1.58592  -0.00004   0.00000  -0.00051  -0.00051   1.58540
    A4        2.07221   0.00003   0.00000   0.00031   0.00031   2.07251
    A5        2.07221   0.00003   0.00000   0.00031   0.00031   2.07251
    A6        2.11882  -0.00005   0.00000  -0.00059  -0.00059   2.11823
    A7        1.41258  -0.00007   0.00000  -0.00092  -0.00092   1.41166
    A8        1.74983  -0.00005   0.00000  -0.00162  -0.00162   1.74821
    A9        1.74983  -0.00005   0.00000  -0.00162  -0.00162   1.74821
   A10        2.13942   0.00002   0.00000   0.00041   0.00041   2.13983
   A11        2.13942   0.00002   0.00000   0.00041   0.00041   2.13983
   A12        1.98478   0.00001   0.00000   0.00007   0.00006   1.98484
   A13        1.41256  -0.00008   0.00000  -0.00099  -0.00099   1.41157
   A14        2.13732   0.00003   0.00000   0.00091   0.00090   2.13821
   A15        2.13732   0.00003   0.00000   0.00091   0.00090   2.13821
   A16        1.76122  -0.00013   0.00000  -0.00340  -0.00340   1.75782
   A17        1.76122  -0.00013   0.00000  -0.00340  -0.00340   1.75782
   A18        1.98387   0.00002   0.00000   0.00007   0.00005   1.98392
   A19        1.72903   0.00010   0.00000   0.00102   0.00102   1.73005
   A20        2.07278  -0.00002   0.00000  -0.00026  -0.00026   2.07253
   A21        2.07278  -0.00002   0.00000  -0.00026  -0.00026   2.07253
   A22        1.58499  -0.00000   0.00000   0.00049   0.00049   1.58548
   A23        1.58499  -0.00000   0.00000   0.00049   0.00049   1.58548
   A24        2.11804   0.00002   0.00000   0.00009   0.00009   2.11813
    D1        0.00000  -0.00000   0.00000  -0.00000   0.00000   0.00000
    D2       -2.12383  -0.00001   0.00000  -0.00044  -0.00044  -2.12427
    D3        2.12383   0.00001   0.00000   0.00044   0.00044   2.12427
    D4        2.08198   0.00003   0.00000   0.00031   0.00031   2.08229
    D5       -0.04185   0.00001   0.00000  -0.00013  -0.00013  -0.04198
    D6       -2.07738   0.00004   0.00000   0.00075   0.00075  -2.07663
    D7       -2.08198  -0.00003   0.00000  -0.00031  -0.00031  -2.08229
    D8        2.07738  -0.00004   0.00000  -0.00075  -0.00075   2.07663
    D9        0.04185  -0.00001   0.00000   0.00013   0.00013   0.04198
   D10        0.00000   0.00000   0.00000   0.00000   0.00000   0.00000
   D11       -1.69679   0.00021   0.00000   0.00473   0.00473  -1.69206
   D12        1.69679  -0.00021   0.00000  -0.00473  -0.00473   1.69206
   D13       -1.67590   0.00001   0.00000   0.00002   0.00002  -1.67588
   D14        2.91049   0.00022   0.00000   0.00475   0.00475   2.91525
   D15        0.02088  -0.00020   0.00000  -0.00470  -0.00470   0.01618
   D16        1.67590  -0.00001   0.00000  -0.00002  -0.00002   1.67588
   D17       -0.02088   0.00020   0.00000   0.00470   0.00470  -0.01618
   D18       -2.91049  -0.00022   0.00000  -0.00475  -0.00475  -2.91525
   D19        0.00000   0.00000   0.00000   0.00000   0.00000   0.00000
   D20        1.67497   0.00005   0.00000   0.00109   0.00109   1.67606
   D21       -1.67497  -0.00005   0.00000  -0.00109  -0.00109  -1.67606
   D22        1.68308  -0.00011   0.00000  -0.00254  -0.00254   1.68054
   D23       -2.92514  -0.00006   0.00000  -0.00145  -0.00145  -2.92659
   D24        0.00811  -0.00016   0.00000  -0.00364  -0.00364   0.00448
   D25       -1.68308   0.00011   0.00000   0.00254   0.00254  -1.68054
   D26       -0.00811   0.00016   0.00000   0.00364   0.00364  -0.00448
   D27        2.92514   0.00006   0.00000   0.00145   0.00145   2.92659
   D28        0.00000  -0.00000   0.00000  -0.00000   0.00000   0.00000
   D29       -2.08239   0.00001   0.00000   0.00006   0.00006  -2.08233
   D30        2.08239  -0.00001   0.00000  -0.00006  -0.00006   2.08233
   D31        2.12085   0.00003   0.00000   0.00103   0.00103   2.12189
   D32        0.03846   0.00004   0.00000   0.00109   0.00109   0.03955
   D33       -2.07994   0.00002   0.00000   0.00098   0.00097  -2.07897
   D34       -2.12085  -0.00003   0.00000  -0.00103  -0.00103  -2.12189
   D35        2.07994  -0.00002   0.00000  -0.00098  -0.00097   2.07897
   D36       -0.03846  -0.00004   0.00000  -0.00109  -0.00109  -0.03955
         Item               Value     Threshold  Converged?
 Maximum Force            0.000223     0.002500     YES
 RMS     Force            0.000080     0.001667     YES
 Maximum Displacement     0.003867     0.010000     YES
 RMS     Displacement     0.001000     0.006667     YES
 Predicted change in Energy=-4.893396D-06
 Optimization completed.
    -- Stationary point found.
                           ----------------------------
                           !   Optimized Parameters   !
                           ! (Angstroms and Degrees)  !
 --------------------------                            --------------------------
 ! Name  Definition              Value          Derivative Info.                !
 --------------------------------------------------------------------------------
 ! R1    R(1,2)                  2.4029         -DE/DX =    0.007               !
 ! R2    R(1,3)                  1.4148         -DE/DX =    0.0001              !
 ! R3    R(1,11)                 1.1953         -DE/DX =    0.0                 !
 ! R4    R(1,12)                 1.1953         -DE/DX =    0.0                 !
 ! R5    R(2,4)                  1.4148         -DE/DX =    0.0                 !
 ! R6    R(2,9)                  1.0056         -DE/DX =    0.0                 !
 ! R7    R(2,10)                 1.0056         -DE/DX =    0.0                 !
 ! R8    R(3,4)                  2.403          -DE/DX =    0.007               !
 ! R9    R(3,5)                  1.0057         -DE/DX =    0.0                 !
 ! R10   R(3,6)                  1.0057         -DE/DX =    0.0                 !
 ! R11   R(4,7)                  1.1951         -DE/DX =    0.0                 !
 ! R12   R(4,8)                  1.1951         -DE/DX =    0.0                 !
 ! A1    A(2,1,3)               99.0651         -DE/DX =    0.0001              !
 ! A2    A(2,1,11)              90.8663         -DE/DX =    0.0                 !
 ! A3    A(2,1,12)              90.8663         -DE/DX =    0.0                 !
 ! A4    A(3,1,11)             118.7286         -DE/DX =    0.0                 !
 ! A5    A(3,1,12)             118.7286         -DE/DX =    0.0                 !
 ! A6    A(11,1,12)            121.3994         -DE/DX =    0.0                 !
 ! A7    A(1,2,4)               80.9347         -DE/DX =   -0.0001              !
 ! A8    A(1,2,9)              100.2579         -DE/DX =   -0.0001              !
 ! A9    A(1,2,10)             100.2579         -DE/DX =   -0.0001              !
 ! A10   A(4,2,9)              122.5799         -DE/DX =    0.0                 !
 ! A11   A(4,2,10)             122.5799         -DE/DX =    0.0                 !
 ! A12   A(9,2,10)             113.7195         -DE/DX =    0.0                 !
 ! A13   A(1,3,4)               80.9338         -DE/DX =   -0.0001              !
 ! A14   A(1,3,5)              122.4593         -DE/DX =    0.0                 !
 ! A15   A(1,3,6)              122.4593         -DE/DX =    0.0                 !
 ! A16   A(4,3,5)              100.9103         -DE/DX =   -0.0001              !
 ! A17   A(4,3,6)              100.9103         -DE/DX =   -0.0001              !
 ! A18   A(5,3,6)              113.6672         -DE/DX =    0.0                 !
 ! A19   A(2,4,3)               99.0664         -DE/DX =    0.0001              !
 ! A20   A(2,4,7)              118.7617         -DE/DX =    0.0                 !
 ! A21   A(2,4,8)              118.7617         -DE/DX =    0.0                 !
 ! A22   A(3,4,7)               90.8132         -DE/DX =    0.0                 !
 ! A23   A(3,4,8)               90.8132         -DE/DX =    0.0                 !
 ! A24   A(7,4,8)              121.3548         -DE/DX =    0.0                 !
 ! D1    D(3,1,2,4)              0.0            -DE/DX =    0.0                 !
 ! D2    D(3,1,2,9)           -121.6863         -DE/DX =    0.0                 !
 ! D3    D(3,1,2,10)           121.6863         -DE/DX =    0.0                 !
 ! D4    D(11,1,2,4)           119.2886         -DE/DX =    0.0                 !
 ! D5    D(11,1,2,9)            -2.3977         -DE/DX =    0.0                 !
 ! D6    D(11,1,2,10)         -119.025          -DE/DX =    0.0                 !
 ! D7    D(12,1,2,4)          -119.2886         -DE/DX =    0.0                 !
 ! D8    D(12,1,2,9)           119.025          -DE/DX =    0.0                 !
 ! D9    D(12,1,2,10)            2.3977         -DE/DX =    0.0                 !
 ! D10   D(2,1,3,4)              0.0            -DE/DX =    0.0                 !
 ! D11   D(2,1,3,5)            -97.2187         -DE/DX =    0.0002              !
 ! D12   D(2,1,3,6)             97.2187         -DE/DX =   -0.0002              !
 ! D13   D(11,1,3,4)           -96.0222         -DE/DX =    0.0                 !
 ! D14   D(11,1,3,5)           166.759          -DE/DX =    0.0002              !
 ! D15   D(11,1,3,6)             1.1965         -DE/DX =   -0.0002              !
 ! D16   D(12,1,3,4)            96.0222         -DE/DX =    0.0                 !
 ! D17   D(12,1,3,5)            -1.1965         -DE/DX =    0.0002              !
 ! D18   D(12,1,3,6)          -166.759          -DE/DX =   -0.0002              !
 ! D19   D(1,2,4,3)              0.0            -DE/DX =    0.0                 !
 ! D20   D(1,2,4,7)             95.9685         -DE/DX =    0.0                 !
 ! D21   D(1,2,4,8)            -95.9685         -DE/DX =    0.0                 !
 ! D22   D(9,2,4,3)             96.4334         -DE/DX =   -0.0001              !
 ! D23   D(9,2,4,7)           -167.5982         -DE/DX =   -0.0001              !
 ! D24   D(9,2,4,8)              0.4649         -DE/DX =   -0.0002              !
 ! D25   D(10,2,4,3)           -96.4334         -DE/DX =    0.0001              !
 ! D26   D(10,2,4,7)            -0.4649         -DE/DX =    0.0002              !
 ! D27   D(10,2,4,8)           167.5982         -DE/DX =    0.0001              !
 ! D28   D(1,3,4,2)              0.0            -DE/DX =    0.0                 !
 ! D29   D(1,3,4,7)           -119.3123         -DE/DX =    0.0                 !
 ! D30   D(1,3,4,8)            119.3123         -DE/DX =    0.0                 !
 ! D31   D(5,3,4,2)            121.516          -DE/DX =    0.0                 !
 ! D32   D(5,3,4,7)              2.2037         -DE/DX =    0.0                 !
 ! D33   D(5,3,4,8)           -119.1717         -DE/DX =    0.0                 !
 ! D34   D(6,3,4,2)           -121.516          -DE/DX =    0.0                 !
 ! D35   D(6,3,4,7)            119.1717         -DE/DX =    0.0                 !
 ! D36   D(6,3,4,8)             -2.2037         -DE/DX =    0.0                 !
 --------------------------------------------------------------------------------
 Lowest energy point so far.  Saving SCF results.
 Iteration  1 RMS(Cart)=  0.02769943 RMS(Int)=  0.00848462
 Iteration  2 RMS(Cart)=  0.00011136 RMS(Int)=  0.00848420
 Iteration  3 RMS(Cart)=  0.00000037 RMS(Int)=  0.00848420
 Iteration  1 RMS(Cart)=  0.00576921 RMS(Int)=  0.00246257
 Iteration  2 RMS(Cart)=  0.00167459 RMS(Int)=  0.00270437
 Iteration  3 RMS(Cart)=  0.00048609 RMS(Int)=  0.00285380
 Iteration  4 RMS(Cart)=  0.00014111 RMS(Int)=  0.00290254
 Iteration  5 RMS(Cart)=  0.00004096 RMS(Int)=  0.00291710
 Iteration  6 RMS(Cart)=  0.00001189 RMS(Int)=  0.00292136
 Iteration  7 RMS(Cart)=  0.00000345 RMS(Int)=  0.00292260
 Iteration  8 RMS(Cart)=  0.00000100 RMS(Int)=  0.00292296
 Iteration  9 RMS(Cart)=  0.00000029 RMS(Int)=  0.00292307
 GradGradGradGradGradGradGradGradGradGradGradGradGradGradGradGradGradGrad

 Leave Link  103 at Thu Mar  9 15:25:25 2017, MaxMem=  1127874560 cpu:         0.2
 (Enter /share/apps/g09RelE.01/g09/l202.exe)
                          Input orientation:                          
 ---------------------------------------------------------------------
 Center     Atomic      Atomic             Coordinates (Angstroms)
 Number     Number       Type             X           Y           Z
 ---------------------------------------------------------------------
      1          5           0       -0.023232   -1.337489    0.000000
      2          7           0        1.322696    0.772779   -0.000000
      3          7           0       -1.297290   -0.728178    0.000000
      4          5           0        0.002778    1.292713   -0.000000
      5          1           0       -1.828729   -0.591957    0.842816
      6          1           0       -1.828729   -0.591957   -0.842816
      7          1           0       -0.488773    1.609464    1.042339
      8          1           0       -0.488773    1.609464   -1.042339
      9          1           0        1.861423    0.656211   -0.841066
     10          1           0        1.861423    0.656211    0.841066
     11          1           0        0.451128   -1.681218   -1.041822
     12          1           0        0.451128   -1.681218    1.041822
 ---------------------------------------------------------------------
                    Distance matrix (angstroms):
                    1          2          3          4          5
     1  B    0.000000
     2  N    2.502949   0.000000
     3  N    1.412262   3.019470   0.000000
     4  B    2.630330   1.418632   2.402952   0.000000
     5  H    2.127435   3.536146   1.005645   2.759844   0.000000
     6  H    2.127435   3.536146   1.005645   2.759844   1.685632
     7  H    3.160338   2.251207   2.684165   1.195167   2.584870
     8  H    3.160338   2.251207   2.684165   1.195167   3.193047
     9  H    2.869522   1.005588   3.549844   2.137075   4.243891
    10  H    2.869522   1.005588   3.549844   2.137075   3.895530
    11  H    1.195224   2.804840   2.247364   3.182872   3.152158
    12  H    1.195224   2.804840   2.247364   3.182872   2.534530
                    6          7          8          9         10
     6  H    0.000000
     7  H    3.193047   0.000000
     8  H    2.584870   2.084677   0.000000
     9  H    3.895530   3.159007   2.544135   0.000000
    10  H    4.243891   2.544135   3.159007   1.682132   0.000000
    11  H    2.534530   4.006960   3.422281   2.737300   3.316289
    12  H    3.152158   3.422281   4.006960   3.316289   2.737300
                   11         12
    11  H    0.000000
    12  H    2.083644   0.000000
 Stoichiometry    B2H8N2
 Framework group  C1[X(B2H8N2)]
 Deg. of freedom    30
 Full point group                 C1      NOp   1
 Omega: Change in point group or standard orientation.

 Old FWG=CS   [SG(B2N2),X(H8)]
 New FWG=C01  [X(B2H8N2)]
 RotChk:  IX=0 Diff= 1.06D+00
 Largest Abelian subgroup         C1      NOp   1
 Largest concise Abelian subgroup C1      NOp   1
                         Standard orientation:                         
 ---------------------------------------------------------------------
 Center     Atomic      Atomic             Coordinates (Angstroms)
 Number     Number       Type             X           Y           Z
 ---------------------------------------------------------------------
      1          5           0        0.950925    0.944136    0.000000
      2          7           0       -1.484427    0.366370    0.000000
      3          7           0        1.441275   -0.380266    0.000000
      4          5           0       -0.898931   -0.925803    0.000000
      5          1           0        1.727921   -0.848046    0.842816
      6          1           0        1.727921   -0.848046   -0.842816
      7          1           0       -0.766607   -1.495402    1.042339
      8          1           0       -0.766607   -1.495402   -1.042339
      9          1           0       -1.789987    0.825116   -0.841066
     10          1           0       -1.789987    0.825116    0.841066
     11          1           0        0.849722    1.521133   -1.041822
     12          1           0        0.849722    1.521133    1.041822
 ---------------------------------------------------------------------
 Rotational constants (GHZ):     11.9601424      4.9901517      3.9158509
 Leave Link  202 at Thu Mar  9 15:25:25 2017, MaxMem=  1127874560 cpu:         0.0
 (Enter /share/apps/g09RelE.01/g09/l301.exe)
 Standard basis: 6-311G(d,p) (5D, 7F)
 Ernie: Thresh=  0.10000D-02 Tol=  0.10000D-05 Strict=F.
 There are   124 symmetry adapted cartesian basis functions of A   symmetry.
 There are   120 symmetry adapted basis functions of A   symmetry.
   120 basis functions,   192 primitive gaussians,   124 cartesian basis functions
    16 alpha electrons       16 beta electrons
       nuclear repulsion energy       111.8988365668 Hartrees.
 IExCor= 4639 DFT=T Ex+Corr=wB97XD ExCW=0 ScaHFX=  1.000000
 ScaDFX=  1.000000  1.000000  1.000000  1.000000 ScalE2=  1.000000  1.000000
 IRadAn=      5 IRanWt=     -1 IRanGd=            0 ICorTp=0 IEmpDi=121
  HFx wShort=  0.000000 wLong=  0.200000 cFull=  0.222036 cShort=  0.000000 cLong=  0.777964
  DFx wShort=  0.000000 wLong=  0.200000 cFull=  0.000000 cShort=  0.000000 cLong=  1.000000
 NAtoms=   12 NActive=   12 NUniq=   12 SFac= 1.00D+00 NAtFMM=   60 NAOKFM=F Big=F
 Integral buffers will be    131072 words long.
 Raffenetti 2 integral format.
 Two-electron integral symmetry is turned on.
 R6Disp:  Grimme-D2 Dispersion energy=       -0.0056970794 Hartrees.
 Nuclear repulsion after empirical dispersion term =      111.8931394874 Hartrees.
 Leave Link  301 at Thu Mar  9 15:25:25 2017, MaxMem=  1127874560 cpu:         0.3
 (Enter /share/apps/g09RelE.01/g09/l302.exe)
 NPDir=0 NMtPBC=     1 NCelOv=     1 NCel=       1 NClECP=     1 NCelD=      1
         NCelK=      1 NCelE2=     1 NClLst=     1 CellRange=     0.0.
 One-electron integrals computed using PRISM.
 NBasis=   120 RedAO= T EigKep=  4.48D-03  NBF=   120
 NBsUse=   120 1.00D-06 EigRej= -1.00D+00 NBFU=   120
 Precomputing XC quadrature grid using
 IXCGrd= 4 IRadAn=           5 IRanWt=          -1 IRanGd=           0 AccXCQ= 0.00D+00.
 Generated NRdTot=       0 NPtTot=           0 NUsed=           0 NTot=          32
 NSgBfM=   124   124   124   124   124 MxSgAt=    12 MxSgA2=    12.
 Leave Link  302 at Thu Mar  9 15:25:25 2017, MaxMem=  1127874560 cpu:         1.3
 (Enter /share/apps/g09RelE.01/g09/l303.exe)
 DipDrv:  MaxL=1.
 Leave Link  303 at Thu Mar  9 15:25:25 2017, MaxMem=  1127874560 cpu:         0.2
 (Enter /share/apps/g09RelE.01/g09/l401.exe)
 Initial guess from the checkpoint file:  "AB-AB-NHscan.chk"
 B after Tr=     0.000000    0.000000    0.000000
         Rot=    0.927025    0.000000   -0.000000    0.375000 Ang=  44.05 deg.
 Guess basis will be translated and rotated to current coordinates.
 JPrj=2 DoOrth=T DoCkMO=T.
 Generating alternative initial guess.
 ExpMin= 9.89D-02 ExpMax= 6.29D+03 ExpMxC= 9.49D+02 IAcc=2 IRadAn=         4 AccDes= 0.00D+00
 Harris functional with IExCor= 4639 and IRadAn=       4 diagonalized for initial guess.
 HarFok:  IExCor= 4639 AccDes= 0.00D+00 IRadAn=         4 IDoV= 1 UseB2=F ITyADJ=14
 ICtDFT=  3500011 ScaDFX=  1.000000  1.000000  1.000000  1.000000
 FoFCou: FMM=F IPFlag=           0 FMFlag=      100000 FMFlg1=           0
         NFxFlg=           0 DoJE=T BraDBF=F KetDBF=T FulRan=T
         wScrn=  0.000000 ICntrl=     500 IOpCl=  0 I1Cent=   200000004 NGrid=           0
         NMat0=    1 NMatS0=      1 NMatT0=    0 NMatD0=    1 NMtDS0=    0 NMtDT0=    0
 Petite list used in FoFCou.
 Harris En= -156.193569808506    
 Leave Link  401 at Thu Mar  9 15:25:26 2017, MaxMem=  1127874560 cpu:         4.5
 (Enter /share/apps/g09RelE.01/g09/l502.exe)
 Closed shell SCF:
 Using DIIS extrapolation, IDIIS=  1040.
 Integral symmetry usage will be decided dynamically.
 Keep R1 ints in memory in canonical form, NReq=53757722.
 IVT=       66362 IEndB=       66362 NGot=  1127874560 MDV=  1075093339
 LenX=  1075093339 LenY=  1075077522
 Requested convergence on RMS density matrix=1.00D-08 within 128 cycles.
 Requested convergence on MAX density matrix=1.00D-06.
 Requested convergence on             energy=1.00D-06.
 No special actions if energy rises.
 FoFCou: FMM=F IPFlag=           0 FMFlag=           0 FMFlg1=           0
         NFxFlg=           0 DoJE=F BraDBF=F KetDBF=F FulRan=T
         wScrn=  0.000000 ICntrl=     600 IOpCl=  0 I1Cent=           0 NGrid=           0
         NMat0=    1 NMatS0=   7260 NMatT0=    0 NMatD0=    1 NMtDS0=    0 NMtDT0=    0
 Symmetry not used in FoFCou.
 Integral accuracy reduced to 1.0D-05 until final iterations.

 Cycle   1  Pass 0  IDiag  1:
 E= -164.066030861014    
 DIIS: error= 3.19D-03 at cycle   1 NSaved=   1.
 NSaved= 1 IEnMin= 1 EnMin= -164.066030861014     IErMin= 1 ErrMin= 3.19D-03
 ErrMax= 3.19D-03  0.00D+00 EMaxC= 1.00D-01 BMatC= 6.12D-04 BMatP= 6.12D-04
 IDIUse=3 WtCom= 9.68D-01 WtEn= 3.19D-02
 Coeff-Com:  0.100D+01
 Coeff-En:   0.100D+01
 Coeff:      0.100D+01
 Gap=     0.686 Goal=   None    Shift=    0.000
 GapD=    0.686 DampG=2.000 DampE=1.000 DampFc=2.0000 IDamp=-1.
 RMSDP=2.29D-04 MaxDP=2.99D-03              OVMax= 1.16D-02

 Cycle   2  Pass 0  IDiag  1:
 E= -164.067187512718     Delta-E=       -0.001156651704 Rises=F Damp=F
 DIIS: error= 8.70D-04 at cycle   2 NSaved=   2.
 NSaved= 2 IEnMin= 2 EnMin= -164.067187512718     IErMin= 2 ErrMin= 8.70D-04
 ErrMax= 8.70D-04  0.00D+00 EMaxC= 1.00D-01 BMatC= 3.37D-05 BMatP= 6.12D-04
 IDIUse=3 WtCom= 9.91D-01 WtEn= 8.70D-03
 Coeff-Com: -0.161D+00 0.116D+01
 Coeff-En:   0.000D+00 0.100D+01
 Coeff:     -0.160D+00 0.116D+01
 Gap=     0.414 Goal=   None    Shift=    0.000
 RMSDP=7.34D-05 MaxDP=1.00D-03 DE=-1.16D-03 OVMax= 4.83D-03

 Cycle   3  Pass 0  IDiag  1:
 E= -164.067281260848     Delta-E=       -0.000093748130 Rises=F Damp=F
 DIIS: error= 3.71D-04 at cycle   3 NSaved=   3.
 NSaved= 3 IEnMin= 3 EnMin= -164.067281260848     IErMin= 3 ErrMin= 3.71D-04
 ErrMax= 3.71D-04  0.00D+00 EMaxC= 1.00D-01 BMatC= 1.06D-05 BMatP= 3.37D-05
 IDIUse=3 WtCom= 9.96D-01 WtEn= 3.71D-03
 Coeff-Com: -0.921D-01 0.439D+00 0.653D+00
 Coeff-En:   0.000D+00 0.000D+00 0.100D+01
 Coeff:     -0.917D-01 0.438D+00 0.654D+00
 Gap=     0.414 Goal=   None    Shift=    0.000
 RMSDP=2.05D-05 MaxDP=5.63D-04 DE=-9.37D-05 OVMax= 1.45D-03

 Cycle   4  Pass 0  IDiag  1:
 E= -164.067292033223     Delta-E=       -0.000010772375 Rises=F Damp=F
 DIIS: error= 1.20D-04 at cycle   4 NSaved=   4.
 NSaved= 4 IEnMin= 4 EnMin= -164.067292033223     IErMin= 4 ErrMin= 1.20D-04
 ErrMax= 1.20D-04  0.00D+00 EMaxC= 1.00D-01 BMatC= 1.42D-06 BMatP= 1.06D-05
 IDIUse=3 WtCom= 9.99D-01 WtEn= 1.20D-03
 Coeff-Com:  0.427D-02-0.988D-01 0.214D+00 0.880D+00
 Coeff-En:   0.000D+00 0.000D+00 0.000D+00 0.100D+01
 Coeff:      0.426D-02-0.987D-01 0.214D+00 0.880D+00
 Gap=     0.414 Goal=   None    Shift=    0.000
 RMSDP=1.23D-05 MaxDP=2.47D-04 DE=-1.08D-05 OVMax= 9.08D-04

 Cycle   5  Pass 0  IDiag  1:
 E= -164.067294414736     Delta-E=       -0.000002381513 Rises=F Damp=F
 DIIS: error= 3.12D-05 at cycle   5 NSaved=   5.
 NSaved= 5 IEnMin= 5 EnMin= -164.067294414736     IErMin= 5 ErrMin= 3.12D-05
 ErrMax= 3.12D-05  0.00D+00 EMaxC= 1.00D-01 BMatC= 5.54D-08 BMatP= 1.42D-06
 IDIUse=1 WtCom= 1.00D+00 WtEn= 0.00D+00
 Coeff-Com:  0.743D-02-0.478D-01-0.297D-01 0.115D+00 0.955D+00
 Coeff:      0.743D-02-0.478D-01-0.297D-01 0.115D+00 0.955D+00
 Gap=     0.414 Goal=   None    Shift=    0.000
 RMSDP=3.86D-06 MaxDP=6.81D-05 DE=-2.38D-06 OVMax= 3.21D-04

 Initial convergence to 1.0D-05 achieved.  Increase integral accuracy.
 Cycle   6  Pass 1  IDiag  1:
 E= -164.067245042981     Delta-E=        0.000049371754 Rises=F Damp=F
 DIIS: error= 3.61D-05 at cycle   1 NSaved=   1.
 NSaved= 1 IEnMin= 1 EnMin= -164.067245042981     IErMin= 1 ErrMin= 3.61D-05
 ErrMax= 3.61D-05  0.00D+00 EMaxC= 1.00D-01 BMatC= 2.17D-07 BMatP= 2.17D-07
 IDIUse=1 WtCom= 1.00D+00 WtEn= 0.00D+00
 Coeff-Com:  0.100D+01
 Coeff:      0.100D+01
 Gap=     0.414 Goal=   None    Shift=    0.000
 RMSDP=3.86D-06 MaxDP=6.81D-05 DE= 4.94D-05 OVMax= 1.27D-04

 Cycle   7  Pass 1  IDiag  1:
 E= -164.067245287903     Delta-E=       -0.000000244922 Rises=F Damp=F
 DIIS: error= 8.82D-06 at cycle   2 NSaved=   2.
 NSaved= 2 IEnMin= 2 EnMin= -164.067245287903     IErMin= 2 ErrMin= 8.82D-06
 ErrMax= 8.82D-06  0.00D+00 EMaxC= 1.00D-01 BMatC= 9.36D-09 BMatP= 2.17D-07
 IDIUse=1 WtCom= 1.00D+00 WtEn= 0.00D+00
 Coeff-Com: -0.638D-01 0.106D+01
 Coeff:     -0.638D-01 0.106D+01
 Gap=     0.414 Goal=   None    Shift=    0.000
 RMSDP=1.21D-06 MaxDP=3.21D-05 DE=-2.45D-07 OVMax= 5.45D-05

 Cycle   8  Pass 1  IDiag  1:
 E= -164.067245300015     Delta-E=       -0.000000012112 Rises=F Damp=F
 DIIS: error= 5.85D-06 at cycle   3 NSaved=   3.
 NSaved= 3 IEnMin= 3 EnMin= -164.067245300015     IErMin= 3 ErrMin= 5.85D-06
 ErrMax= 5.85D-06  0.00D+00 EMaxC= 1.00D-01 BMatC= 4.33D-09 BMatP= 9.36D-09
 IDIUse=1 WtCom= 1.00D+00 WtEn= 0.00D+00
 Coeff-Com: -0.635D-01 0.435D+00 0.628D+00
 Coeff:     -0.635D-01 0.435D+00 0.628D+00
 Gap=     0.414 Goal=   None    Shift=    0.000
 RMSDP=3.88D-07 MaxDP=1.18D-05 DE=-1.21D-08 OVMax= 2.36D-05

 Cycle   9  Pass 1  IDiag  1:
 E= -164.067245303940     Delta-E=       -0.000000003925 Rises=F Damp=F
 DIIS: error= 1.99D-06 at cycle   4 NSaved=   4.
 NSaved= 4 IEnMin= 4 EnMin= -164.067245303940     IErMin= 4 ErrMin= 1.99D-06
 ErrMax= 1.99D-06  0.00D+00 EMaxC= 1.00D-01 BMatC= 3.22D-10 BMatP= 4.33D-09
 IDIUse=1 WtCom= 1.00D+00 WtEn= 0.00D+00
 Coeff-Com: -0.163D-01 0.445D-01 0.207D+00 0.765D+00
 Coeff:     -0.163D-01 0.445D-01 0.207D+00 0.765D+00
 Gap=     0.414 Goal=   None    Shift=    0.000
 RMSDP=1.62D-07 MaxDP=3.68D-06 DE=-3.93D-09 OVMax= 9.78D-06

 Cycle  10  Pass 1  IDiag  1:
 E= -164.067245304345     Delta-E=       -0.000000000404 Rises=F Damp=F
 DIIS: error= 7.15D-07 at cycle   5 NSaved=   5.
 NSaved= 5 IEnMin= 5 EnMin= -164.067245304345     IErMin= 5 ErrMin= 7.15D-07
 ErrMax= 7.15D-07  0.00D+00 EMaxC= 1.00D-01 BMatC= 3.06D-11 BMatP= 3.22D-10
 IDIUse=1 WtCom= 1.00D+00 WtEn= 0.00D+00
 Coeff-Com:  0.553D-02-0.534D-01-0.433D-01 0.175D+00 0.916D+00
 Coeff:      0.553D-02-0.534D-01-0.433D-01 0.175D+00 0.916D+00
 Gap=     0.414 Goal=   None    Shift=    0.000
 RMSDP=8.05D-08 MaxDP=1.53D-06 DE=-4.04D-10 OVMax= 6.31D-06

 Cycle  11  Pass 1  IDiag  1:
 E= -164.067245304419     Delta-E=       -0.000000000075 Rises=F Damp=F
 DIIS: error= 2.45D-07 at cycle   6 NSaved=   6.
 NSaved= 6 IEnMin= 6 EnMin= -164.067245304419     IErMin= 6 ErrMin= 2.45D-07
 ErrMax= 2.45D-07  0.00D+00 EMaxC= 1.00D-01 BMatC= 2.59D-12 BMatP= 3.06D-11
 IDIUse=1 WtCom= 1.00D+00 WtEn= 0.00D+00
 Coeff-Com:  0.239D-02-0.151D-01-0.232D-01-0.254D-01 0.184D+00 0.877D+00
 Coeff:      0.239D-02-0.151D-01-0.232D-01-0.254D-01 0.184D+00 0.877D+00
 Gap=     0.414 Goal=   None    Shift=    0.000
 RMSDP=2.41D-08 MaxDP=3.81D-07 DE=-7.47D-11 OVMax= 2.22D-06

 Cycle  12  Pass 1  IDiag  1:
 E= -164.067245304426     Delta-E=       -0.000000000006 Rises=F Damp=F
 DIIS: error= 9.20D-08 at cycle   7 NSaved=   7.
 NSaved= 7 IEnMin= 7 EnMin= -164.067245304426     IErMin= 7 ErrMin= 9.20D-08
 ErrMax= 9.20D-08  0.00D+00 EMaxC= 1.00D-01 BMatC= 5.91D-13 BMatP= 2.59D-12
 IDIUse=1 WtCom= 1.00D+00 WtEn= 0.00D+00
 Coeff-Com:  0.223D-03 0.113D-02-0.323D-02-0.351D-01-0.520D-01 0.301D+00
 Coeff-Com:  0.788D+00
 Coeff:      0.223D-03 0.113D-02-0.323D-02-0.351D-01-0.520D-01 0.301D+00
 Coeff:      0.788D+00
 Gap=     0.414 Goal=   None    Shift=    0.000
 RMSDP=1.01D-08 MaxDP=1.64D-07 DE=-6.25D-12 OVMax= 8.90D-07

 Cycle  13  Pass 1  IDiag  1:
 E= -164.067245304427     Delta-E=       -0.000000000002 Rises=F Damp=F
 DIIS: error= 3.43D-08 at cycle   8 NSaved=   8.
 NSaved= 8 IEnMin= 8 EnMin= -164.067245304427     IErMin= 8 ErrMin= 3.43D-08
 ErrMax= 3.43D-08  0.00D+00 EMaxC= 1.00D-01 BMatC= 5.27D-14 BMatP= 5.91D-13
 IDIUse=1 WtCom= 1.00D+00 WtEn= 0.00D+00
 Coeff-Com: -0.302D-03 0.246D-02 0.308D-02-0.174D-02-0.335D-01-0.951D-01
 Coeff-Com:  0.170D+00 0.955D+00
 Coeff:     -0.302D-03 0.246D-02 0.308D-02-0.174D-02-0.335D-01-0.951D-01
 Coeff:      0.170D+00 0.955D+00
 Gap=     0.414 Goal=   None    Shift=    0.000
 RMSDP=3.83D-09 MaxDP=6.81D-08 DE=-1.71D-12 OVMax= 4.09D-07

 SCF Done:  E(RwB97XD) =  -164.067245304     A.U. after   13 cycles
            NFock= 13  Conv=0.38D-08     -V/T= 2.0043
 KE= 1.633697652345D+02 PE=-6.051292012093D+02 EE= 1.657990511829D+02
 Leave Link  502 at Thu Mar  9 15:25:50 2017, MaxMem=  1127874560 cpu:        92.1
 (Enter /share/apps/g09RelE.01/g09/l701.exe)
 Compute integral first derivatives.
 ... and contract with generalized density number  0.
 R6Disp: Adding Grimme-D2 dispersion energy 1st derivatives to the gradient.
 Leave Link  701 at Thu Mar  9 15:25:50 2017, MaxMem=  1127874560 cpu:         0.8
 (Enter /share/apps/g09RelE.01/g09/l702.exe)
 L702 exits ... SP integral derivatives will be done elsewhere.
 Leave Link  702 at Thu Mar  9 15:25:51 2017, MaxMem=  1127874560 cpu:         0.1
 (Enter /share/apps/g09RelE.01/g09/l703.exe)
 Compute integral first derivatives, UseDBF=F ICtDFT=           0.
 Integral derivatives from FoFJK, PRISM(SPDF).
 Calling FoFJK, ICntrl=      2127 FMM=F ISym2X=0 I1Cent= 0 IOpClX= 0 NMat=1 NMatS=1 NMatT=0.
 FoFJK:  IHMeth= 1 ICntrl=    2127 DoSepK=T KAlg= 0 I1Cent=   0 FoldK=F
 IRaf=         1 NMat=   1 IRICut=       1 DoRegI=T DoRafI=F ISym2E= 0.
 FoFCou: FMM=F IPFlag=           0 FMFlag=      100000 FMFlg1=         800
         NFxFlg=           0 DoJE=F BraDBF=F KetDBF=F FulRan=T
         wScrn=  0.000000 ICntrl=    2527 IOpCl=  0 I1Cent=           0 NGrid=           0
         NMat0=    1 NMatS0=      1 NMatT0=    0 NMatD0=    1 NMtDS0=    0 NMtDT0=    0
 Symmetry not used in FoFCou.
 Leave Link  703 at Thu Mar  9 15:25:59 2017, MaxMem=  1127874560 cpu:        31.8
 (Enter /share/apps/g09RelE.01/g09/l716.exe)
 Dipole        = 4.73691260D-02 3.62799763D-03-2.16718932D-09
 ***** Axes restored to original set *****
 -------------------------------------------------------------------
 Center     Atomic                   Forces (Hartrees/Bohr)
 Number     Number              X              Y              Z
 -------------------------------------------------------------------
      1        5          -0.005428382   -0.006698605    0.000000005
      2        7          -0.000496031    0.006735574   -0.000000006
      3        7          -0.002633740   -0.008426810    0.000000009
      4        5           0.008629413    0.004978596   -0.000000002
      5        1          -0.000071034    0.000701359   -0.000024629
      6        1          -0.000071040    0.000701360    0.000024619
      7        1          -0.000038559    0.000023037    0.000119956
      8        1          -0.000038559    0.000023036   -0.000119955
      9        1          -0.000611965   -0.000491314   -0.000280280
     10        1          -0.000611961   -0.000491315    0.000280286
     11        1           0.000685930    0.001472540   -0.000001897
     12        1           0.000685928    0.001472542    0.000001891
 -------------------------------------------------------------------
 Cartesian Forces:  Max     0.008629413 RMS     0.002909983
 Leave Link  716 at Thu Mar  9 15:25:59 2017, MaxMem=  1127874560 cpu:         0.1
 (Enter /share/apps/g09RelE.01/g09/l103.exe)

 GradGradGradGradGradGradGradGradGradGradGradGradGradGradGradGradGradGrad
 Berny optimization.
 FormGI is forming the generalized inverse of G from B-inverse, IUseBI=4.
 Internal  Forces:  Max     0.007850098 RMS     0.001276987
 Search for a local minimum.
 Step number   1 out of a maximum of   82 on scan point     2 out of     2
 All quantities printed in internal units (Hartrees-Bohrs-Radians)
 RMS Force = .65354D-03 SwitMx=.10000D-02 MixMth= 1
 Mixed Optimization -- RFO/linear search
 Second derivative matrix not updated -- first step.
 ITU=  0
     Eigenvalues ---    0.00546   0.02655   0.03756   0.04028   0.04160
     Eigenvalues ---    0.04473   0.04745   0.04882   0.06676   0.07184
     Eigenvalues ---    0.07967   0.08156   0.08223   0.08371   0.08378
     Eigenvalues ---    0.08662   0.09187   0.21856   0.25015   0.25015
     Eigenvalues ---    0.25026   0.25026   0.40535   0.43239   0.46707
     Eigenvalues ---    0.46707   0.46718   0.467181000.000001000.00000
     Eigenvalues --- 1000.000001000.000001000.000001000.000001000.00000
     Eigenvalues --- 1000.000001000.000001000.000001000.000001000.00000
     Eigenvalues --- 1000.000001000.000001000.000001000.000001000.00000
     Eigenvalues --- 1000.000001000.000001000.000001000.000001000.00000
     Eigenvalues --- 1000.000001000.000001000.000001000.000001000.00000
     Eigenvalues --- 1000.000001000.000001000.000001000.000001000.00000
     Eigenvalues --- 1000.000001000.000001000.000001000.000001000.00000
     Eigenvalues --- 1000.000001000.000001000.000001000.000001000.00000
     Eigenvalues --- 1000.000001000.00000
 RFO step:  Lambda=-1.95854460D-04 EMin= 5.45576500D-03
 Linear search not attempted -- first point.
 Iteration  1 RMS(Cart)=  0.00575482 RMS(Int)=  0.00006526
 Iteration  2 RMS(Cart)=  0.00004504 RMS(Int)=  0.00004336
 Iteration  3 RMS(Cart)=  0.00000000 RMS(Int)=  0.00004336
 Iteration  1 RMS(Cart)=  0.00000030 RMS(Int)=  0.00000013
 ITry= 1 IFail=0 DXMaxC= 2.31D-02 DCOld= 1.00D+10 DXMaxT= 3.00D-01 DXLimC= 3.00D+00 Rises=F
 Variable       Old X    -DE/DX   Delta X   Delta X   Delta X     New X
                                 (Linear)    (Quad)   (Total)
    R1        4.72989   0.00491   0.00000   0.00000  -0.00000   4.72989
    R2        2.66879  -0.00156   0.00000  -0.00312  -0.00312   2.66567
    R3        2.25865  -0.00015   0.00000  -0.00061  -0.00061   2.25804
    R4        2.25865  -0.00015   0.00000  -0.00061  -0.00061   2.25804
    R5        2.68083  -0.00454   0.00000  -0.01093  -0.01093   2.66989
    R6        1.90029  -0.00003   0.00000  -0.00007  -0.00007   1.90021
    R7        1.90029  -0.00003   0.00000  -0.00007  -0.00007   1.90021
    R8        4.54092   0.00785   0.00000   0.00000   0.00000   4.54092
    R9        1.90039   0.00011   0.00000   0.00024   0.00024   1.90064
   R10        1.90039   0.00011   0.00000   0.00024   0.00024   1.90064
   R11        2.25854   0.00012   0.00000   0.00050   0.00050   2.25904
   R12        2.25854   0.00012   0.00000   0.00050   0.00050   2.25904
    A1        1.69245   0.00009   0.00000  -0.00188  -0.00188   1.69057
    A2        1.59985  -0.00078   0.00000  -0.01457  -0.01456   1.58529
    A3        1.59985  -0.00078   0.00000  -0.01457  -0.01456   1.58529
    A4        2.07387   0.00011   0.00000   0.00165   0.00152   2.07538
    A5        2.07387   0.00011   0.00000   0.00165   0.00152   2.07538
    A6        2.11714   0.00009   0.00000   0.00310   0.00282   2.11995
    A7        1.37829   0.00076   0.00000   0.00123   0.00123   1.37953
    A8        1.76231  -0.00059   0.00000  -0.00530  -0.00530   1.75701
    A9        1.76231  -0.00059   0.00000  -0.00530  -0.00530   1.75701
   A10        2.14235  -0.00019   0.00000  -0.00098  -0.00098   2.14137
   A11        2.14235  -0.00019   0.00000  -0.00098  -0.00098   2.14137
   A12        1.98134   0.00044   0.00000   0.00367   0.00365   1.98499
   A13        1.44523  -0.00063   0.00000   0.00021   0.00020   1.44543
   A14        2.13552   0.00018   0.00000   0.00230   0.00228   2.13780
   A15        2.13552   0.00018   0.00000   0.00230   0.00228   2.13780
   A16        1.74365   0.00005   0.00000  -0.00496  -0.00495   1.73869
   A17        1.74365   0.00005   0.00000  -0.00496  -0.00495   1.73869
   A18        1.98753  -0.00022   0.00000  -0.00220  -0.00223   1.98529
   A19        1.76721  -0.00022   0.00000   0.00044   0.00044   1.76765
[...]
 ! A17   A(4,3,6)               98.134          -DE/DX =    0.0002              !
 ! A18   A(5,3,6)              113.7455         -DE/DX =    0.0                 !
 ! A19   A(2,4,3)              101.5787         -DE/DX =   -0.0004              !
 ! A20   A(2,4,7)              118.7745         -DE/DX =    0.0                 !
 ! A21   A(2,4,8)              118.7745         -DE/DX =    0.0                 !
 ! A22   A(3,4,7)               89.8363         -DE/DX =    0.0002              !
 ! A23   A(3,4,8)               89.8363         -DE/DX =    0.0002              !
 ! A24   A(7,4,8)              121.2155         -DE/DX =    0.0                 !
 ! D1    D(3,1,2,4)              0.0            -DE/DX =    0.0                 !
 ! D2    D(3,1,2,9)           -122.0134         -DE/DX =    0.0                 !
 ! D3    D(3,1,2,10)           122.0134         -DE/DX =    0.0                 !
 ! D4    D(11,1,2,4)           119.2146         -DE/DX =    0.0                 !
 ! D5    D(11,1,2,9)            -2.7988         -DE/DX =    0.0                 !
 ! D6    D(11,1,2,10)         -118.772          -DE/DX =    0.0                 !
 ! D7    D(12,1,2,4)          -119.2146         -DE/DX =    0.0                 !
 ! D8    D(12,1,2,9)           118.772          -DE/DX =    0.0                 !
 ! D9    D(12,1,2,10)            2.7988         -DE/DX =    0.0                 !
 ! D10   D(2,1,3,4)              0.0            -DE/DX =    0.0                 !
 ! D11   D(2,1,3,5)            -94.8896         -DE/DX =    0.0                 !
 ! D12   D(2,1,3,6)             94.8896         -DE/DX =    0.0                 !
 ! D13   D(11,1,3,4)           -94.2702         -DE/DX =   -0.0001              !
 ! D14   D(11,1,3,5)           170.8403         -DE/DX =    0.0                 !
 ! D15   D(11,1,3,6)             0.6194         -DE/DX =   -0.0001              !
 ! D16   D(12,1,3,4)            94.2702         -DE/DX =    0.0001              !
 ! D17   D(12,1,3,5)            -0.6194         -DE/DX =    0.0001              !
 ! D18   D(12,1,3,6)          -170.8403         -DE/DX =    0.0                 !
 ! D19   D(1,2,4,3)              0.0            -DE/DX =    0.0                 !
 ! D20   D(1,2,4,7)             96.2685         -DE/DX =    0.0                 !
 ! D21   D(1,2,4,8)            -96.2685         -DE/DX =    0.0                 !
 ! D22   D(9,2,4,3)             93.2223         -DE/DX =    0.0                 !
 ! D23   D(9,2,4,7)           -170.5092         -DE/DX =    0.0                 !
 ! D24   D(9,2,4,8)             -3.0463         -DE/DX =    0.0001              !
 ! D25   D(10,2,4,3)           -93.2223         -DE/DX =    0.0                 !
 ! D26   D(10,2,4,7)             3.0463         -DE/DX =   -0.0001              !
 ! D27   D(10,2,4,8)           170.5092         -DE/DX =    0.0                 !
 ! D28   D(1,3,4,2)              0.0            -DE/DX =    0.0                 !
 ! D29   D(1,3,4,7)           -119.3918         -DE/DX =    0.0                 !
 ! D30   D(1,3,4,8)            119.3918         -DE/DX =    0.0                 !
 ! D31   D(5,3,4,2)            122.2241         -DE/DX =    0.0                 !
 ! D32   D(5,3,4,7)              2.8323         -DE/DX =    0.0                 !
 ! D33   D(5,3,4,8)           -118.3841         -DE/DX =   -0.0001              !
 ! D34   D(6,3,4,2)           -122.2241         -DE/DX =    0.0                 !
 ! D35   D(6,3,4,7)            118.3841         -DE/DX =    0.0001              !
 ! D36   D(6,3,4,8)             -2.8323         -DE/DX =    0.0                 !
 --------------------------------------------------------------------------------
 Lowest energy point so far.  Saving SCF results.
 GradGradGradGradGradGradGradGradGradGradGradGradGradGradGradGradGradGrad

 Summary of Optimized Potential Surface Scan
                           1         2
     Eigenvalues --  -164.06618-164.06746
           R1           2.40295   2.50295
           R2           1.41485   1.40794
           R3           1.19526   1.19476
           R4           1.19526   1.19476
           R5           1.41480   1.41019
           R6           1.00560   1.00535
           R7           1.00560   1.00535
           R8           2.40295   2.40295
           R9           1.00566   1.00571
           R10          1.00566   1.00571
           R11          1.19510   1.19578
           R12          1.19510   1.19578
           A1          99.06508  97.14029
           A2          90.86633  90.25988
           A3          90.86633  90.25988
           A4         118.72865 118.92920
           A5         118.72865 118.92920
           A6         121.39936 121.56864
           A7          80.93472  78.75297
           A8         100.25788  98.75983
           A9         100.25788  98.75983
           A10        122.57990 122.92733
           A11        122.57990 122.92733
           A12        113.71955 113.86611
           A13         80.93382  82.52804
           A14        122.45928 122.80519
           A15        122.45928 122.80519
           A16        100.91034  98.13396
           A17        100.91034  98.13396
           A18        113.66716 113.74547
           A19         99.06638 101.57870
           A20        118.76174 118.77449
           A21        118.76174 118.77449
           A22         90.81316  89.83626
           A23         90.81316  89.83626
           A24        121.35483 121.21554
           D1           0.00000   0.00000
           D2        -121.68635-122.01338
           D3         121.68635 122.01338
           D4         119.28865 119.21463
           D5          -2.39770  -2.79875
           D6        -119.02501-118.77200
           D7        -119.28865-119.21463
           D8         119.02501 118.77200
           D9           2.39770   2.79875
           D10          0.00000   0.00000
           D11        -97.21875 -94.88959
           D12         97.21875  94.88959
           D13        -96.02224 -94.27016
           D14        166.75902 170.84025
           D15          1.19651   0.61944
           D16         96.02224  94.27016
           D17         -1.19651  -0.61944
           D18       -166.75902-170.84025
           D19          0.00000   0.00000
           D20         95.96845  96.26854
           D21        -95.96845 -96.26854
           D22         96.43338  93.22229
           D23       -167.59817-170.50916
           D24          0.46493  -3.04625
           D25        -96.43338 -93.22229
           D26         -0.46493   3.04625
           D27        167.59817 170.50916
           D28          0.00000   0.00000
           D29       -119.31231-119.39181
           D30        119.31231 119.39181
           D31        121.51599 122.22407
           D32          2.20368   2.83226
           D33       -119.17170-118.38412
           D34       -121.51599-122.22407
           D35        119.17170 118.38412
           D36         -2.20368  -2.83226
 Largest change from initial coordinates is atom    2       0.033 Angstoms.
 Leave Link  103 at Thu Mar  9 15:27:34 2017, MaxMem=  1127874560 cpu:         0.1
 (Enter /share/apps/g09RelE.01/g09/l202.exe)
                          Input orientation:                          
 ---------------------------------------------------------------------
 Center     Atomic      Atomic             Coordinates (Angstroms)
 Number     Number       Type             X           Y           Z
 ---------------------------------------------------------------------
      1          5           0       -0.021165   -1.337341    0.000000
      2          7           0        1.316454    0.778203    0.000000
      3          7           0       -1.295482   -0.738668    0.000000
      4          5           0        0.000432    1.284889    0.000000
      5          1           0       -1.819287   -0.572192    0.842244
      6          1           0       -1.819287   -0.572192   -0.842244
      7          1           0       -0.495614    1.598506    1.041857
      8          1           0       -0.495614    1.598506   -1.041857
      9          1           0        1.843488    0.626116   -0.842520
     10          1           0        1.843488    0.626116    0.842520
     11          1           0        0.468818   -1.653559   -1.042774
     12          1           0        0.468818   -1.653559    1.042774
 ---------------------------------------------------------------------
                    Distance matrix (angstroms):
                    1          2          3          4          5
     1  B    0.000000
     2  N    2.502949   0.000000
     3  N    1.407939   3.020448   0.000000
     4  B    2.622319   1.410193   2.402952   0.000000
     5  H    2.127927   3.516506   1.005715   2.733039   0.000000
     6  H    2.127927   3.516506   1.005715   2.733039   1.684489
     7  H    3.151153   2.245429   2.680977   1.195777   2.550271
     8  H    3.151153   2.245429   2.680977   1.195777   3.164471
     9  H    2.835830   1.005354   3.524997   2.130887   4.205983
    10  H    2.835830   1.005354   3.524997   2.130887   3.853811
    11  H    1.194761   2.778369   2.244361   3.152974   3.155642
    12  H    1.194761   2.778369   2.244361   3.152974   2.538699
                    6          7          8          9         10
     6  H    0.000000
     7  H    3.164471   0.000000
     8  H    2.550271   2.083715   0.000000
     9  H    3.853811   3.157185   2.540999   0.000000
    10  H    4.205983   2.540999   3.157185   1.685041   0.000000
    11  H    2.538699   3.981425   3.392058   2.669595   3.262050
    12  H    3.155642   3.392058   3.981425   3.262050   2.669595
                   11         12
    11  H    0.000000
    12  H    2.085548   0.000000
 Stoichiometry    B2H8N2
 Framework group  CS[SG(B2N2),X(H8)]
 Deg. of freedom    17
 Full point group                 CS      NOp   2
 RotChk:  IX=3 Diff= 7.85D-16
 Largest Abelian subgroup         CS      NOp   2
 Largest concise Abelian subgroup CS      NOp   2
                         Standard orientation:                         
 ---------------------------------------------------------------------
 Center     Atomic      Atomic             Coordinates (Angstroms)
 Number     Number       Type             X           Y           Z
 ---------------------------------------------------------------------
      1          5           0        0.023136    1.337710    0.000000
      2          7           0       -1.315724   -0.777049    0.000000
      3          7           0        1.297101    0.738289    0.000000
      4          5           0        0.000000   -1.284507    0.000000
      5          1           0        1.820809    0.571505    0.842244
      6          1           0        1.820809    0.571505   -0.842244
      7          1           0        0.495862   -1.598415    1.041857
      8          1           0        0.495862   -1.598415   -1.041857
      9          1           0       -1.842669   -0.624652   -0.842520
     10          1           0       -1.842669   -0.624652    0.842520
     11          1           0       -0.466661    1.654216   -1.042774
     12          1           0       -0.466661    1.654216    1.042774
 ---------------------------------------------------------------------
 Rotational constants (GHZ):     12.0288676      5.0137507      3.9380664
 Leave Link  202 at Thu Mar  9 15:27:34 2017, MaxMem=  1127874560 cpu:         0.0
 (Enter /share/apps/g09RelE.01/g09/l601.exe)
 Copying SCF densities to generalized density rwf, IOpCl= 0 IROHF=0.

 **********************************************************************

            Population analysis using the SCF density.

 **********************************************************************

 Orbital symmetries:
       Occupied  (A') (A') (A') (A') (A') (A') (A') (A') (A") (A")
                 (A') (A') (A') (A") (A") (A')
       Virtual   (A') (A') (A') (A') (A") (A") (A') (A') (A") (A')
                 (A") (A') (A') (A") (A') (A") (A') (A') (A') (A")
                 (A") (A') (A') (A') (A') (A') (A") (A") (A') (A')
                 (A") (A') (A") (A') (A') (A") (A') (A') (A") (A')
                 (A') (A") (A") (A') (A") (A") (A') (A') (A') (A")
                 (A") (A") (A') (A") (A') (A') (A') (A") (A") (A')
                 (A') (A") (A") (A') (A') (A') (A') (A') (A") (A")
                 (A') (A') (A') (A') (A") (A") (A') (A") (A") (A')
                 (A') (A") (A") (A') (A') (A') (A') (A") (A") (A')
                 (A') (A') (A") (A") (A') (A') (A') (A') (A") (A")
                 (A') (A') (A') (A')
 The electronic state is 1-A'.
 Alpha  occ. eigenvalues --  -14.42198 -14.41515  -6.83879  -6.83480  -0.97037
 Alpha  occ. eigenvalues --   -0.95621  -0.62047  -0.60705  -0.60224  -0.58870
 Alpha  occ. eigenvalues --   -0.48048  -0.47694  -0.41669  -0.40293  -0.39766
 Alpha  occ. eigenvalues --   -0.33300
 Alpha virt. eigenvalues --    0.08180   0.11039   0.14337   0.14571   0.15248
 Alpha virt. eigenvalues --    0.19560   0.20536   0.20936   0.23616   0.24363
 Alpha virt. eigenvalues --    0.27377   0.28405   0.34017   0.34583   0.38852
 Alpha virt. eigenvalues --    0.39053   0.45925   0.47328   0.51002   0.52195
 Alpha virt. eigenvalues --    0.55813   0.55867   0.56407   0.60157   0.63519
 Alpha virt. eigenvalues --    0.66088   0.69099   0.69943   0.78257   0.78660
 Alpha virt. eigenvalues --    0.80535   0.84110   0.85045   0.91706   0.94872
 Alpha virt. eigenvalues --    0.98029   0.99147   1.00441   1.00475   1.12403
 Alpha virt. eigenvalues --    1.23471   1.23713   1.25005   1.29791   1.31331
 Alpha virt. eigenvalues --    1.33100   1.39250   1.47067   1.64375   1.66934
 Alpha virt. eigenvalues --    1.68020   1.69558   1.72389   1.73375   1.75148
 Alpha virt. eigenvalues --    1.78972   1.80811   1.81232   1.88964   1.90924
 Alpha virt. eigenvalues --    2.01026   2.01897   2.02509   2.07111   2.08018
 Alpha virt. eigenvalues --    2.10857   2.14232   2.16896   2.19988   2.20867
 Alpha virt. eigenvalues --    2.27872   2.32603   2.47472   2.51161   2.53090
 Alpha virt. eigenvalues --    2.56771   2.58967   2.59445   2.61196   2.61531
 Alpha virt. eigenvalues --    2.64817   2.75084   2.76730   2.82131   2.83281
 Alpha virt. eigenvalues --    2.92543   2.95712   2.96595   2.98875   3.02728
 Alpha virt. eigenvalues --    3.11920   3.24599   3.33661   3.35241   3.96108
 Alpha virt. eigenvalues --    3.99851   4.74161   4.82736   4.86527   4.87421
 Alpha virt. eigenvalues --   14.77575  14.79937  35.73148  35.75515
          Condensed to atoms (all electrons):
               1          2          3          4          5          6
     1  B    3.587703   0.029673   0.463294   0.002208  -0.034114  -0.034114
     2  N    0.029673   6.319825  -0.027958   0.467308   0.000389   0.000389
     3  N    0.463294  -0.027958   6.324219   0.031947   0.376734   0.376734
     4  B    0.002208   0.467308   0.031947   3.580602  -0.002694  -0.002694
     5  H   -0.034114   0.000389   0.376734  -0.002694   0.464124  -0.034740
     6  H   -0.034114   0.000389   0.376734  -0.002694  -0.034740   0.464124
     7  H   -0.005178  -0.023262  -0.010007   0.436580  -0.001348   0.000658
     8  H   -0.005178  -0.023262  -0.010007   0.436580   0.000658  -0.001348
     9  H   -0.001641   0.377540   0.000291  -0.035074  -0.000026   0.000008
    10  H   -0.001641   0.377540   0.000291  -0.035074   0.000008  -0.000026
    11  H    0.435502  -0.007263  -0.023180  -0.004509   0.006353  -0.010445
    12  H    0.435502  -0.007263  -0.023180  -0.004509  -0.010445   0.006353
               7          8          9         10         11         12
     1  B   -0.005178  -0.005178  -0.001641  -0.001641   0.435502   0.435502
     2  N   -0.023262  -0.023262   0.377540   0.377540  -0.007263  -0.007263
     3  N   -0.010007  -0.010007   0.000291   0.000291  -0.023180  -0.023180
     4  B    0.436580   0.436580  -0.035074  -0.035074  -0.004509  -0.004509
     5  H   -0.001348   0.000658  -0.000026   0.000008   0.006353  -0.010445
     6  H    0.000658  -0.001348   0.000008  -0.000026  -0.010445   0.006353
     7  H    0.696375  -0.030946   0.006526  -0.010583  -0.000279   0.000926
     8  H   -0.030946   0.696375  -0.010583   0.006526   0.000926  -0.000279
     9  H    0.006526  -0.010583   0.468730  -0.035352  -0.000951   0.000534
    10  H   -0.010583   0.006526  -0.035352   0.468730   0.000534  -0.000951
    11  H   -0.000279   0.000926  -0.000951   0.000534   0.686943  -0.030758
    12  H    0.000926  -0.000279   0.000534  -0.000951  -0.030758   0.686943
 Mulliken charges:
               1
     1  B    0.127984
     2  N   -0.483657
     3  N   -0.479178
     4  B    0.129329
     5  H    0.235100
     6  H    0.235100
     7  H   -0.059462
     8  H   -0.059462
     9  H    0.229997
    10  H    0.229997
    11  H   -0.052873
    12  H   -0.052873
 Sum of Mulliken charges =  -0.00000
 Mulliken charges with hydrogens summed into heavy atoms:
               1
     1  B    0.022238
     2  N   -0.023664
     3  N   -0.008979
     4  B    0.010404
 Electronic spatial extent (au):  <R**2>=            355.3538
 Charge=              0.0000 electrons
 Dipole moment (field-independent basis, Debye):
    X=              0.0941    Y=              0.1543    Z=             -0.0000  Tot=              0.1807
 Quadrupole moment (field-independent basis, Debye-Ang):
   XX=            -21.2233   YY=            -33.1408   ZZ=            -26.4389
   XY=              1.9281   XZ=              0.0000   YZ=             -0.0000
 Traceless Quadrupole moment (field-independent basis, Debye-Ang):
   XX=              5.7111   YY=             -6.2065   ZZ=              0.4954
   XY=              1.9281   XZ=              0.0000   YZ=             -0.0000
 Octapole moment (field-independent basis, Debye-Ang**2):
  XXX=             -0.1765  YYY=              0.4341  ZZZ=              0.0000  XYY=              0.0913
  XXY=             -0.1790  XXZ=              0.0000  XZZ=             -0.1066  YZZ=             -0.0915
  YYZ=              0.0000  XYZ=             -0.0000
 Hexadecapole moment (field-independent basis, Debye-Ang**3):
 XXXX=           -158.1529 YYYY=           -265.1517 ZZZZ=            -65.9762 XXXY=            -24.7732
 XXXZ=              0.0000 YYYX=            -30.5228 YYYZ=             -0.0000 ZZZX=              0.0000
 ZZZY=              0.0000 XXYY=            -81.6724 XXZZ=            -29.4145 YYZZ=            -58.2873
 XXYZ=              0.0000 YYXZ=              0.0000 ZZXY=             -4.8938
 N-N= 1.121929298188D+02 E-N=-6.057313787353D+02  KE= 1.633961785532D+02
 Symmetry A'   KE= 1.550114277864D+02
 Symmetry A"   KE= 8.384750766816D+00
 No NMR shielding tensors so no spin-rotation constants.
 Leave Link  601 at Thu Mar  9 15:27:35 2017, MaxMem=  1127874560 cpu:         0.9
 (Enter /share/apps/g09RelE.01/g09/l9999.exe)
 1\1\GINC-COMPUTE-0-9\Scan\RwB97XD\6-311G(d,p)\B2H8N2\BERTA\09-Mar-2017
 \0\\#P RwB97XD/6-311G(d,p)int(grid=ultrafine) opt(modred,loose)\\AB2-m
 ult-scan9_1.gjf\\0,1\B,-0.021164633,-1.3373412702,0.0000000001\N,1.316
 4540255,0.7782034042,0.0000000001\N,-1.2954816668,-0.7386680841,0.0000
 000001\B,0.0004321635,1.2848890028,0.0000000001\H,-1.8192866546,-0.572
 1917782,0.8422444332\H,-1.8192866546,-0.5721917782,-0.8422444329\H,-0.
 4956136417,1.5985055848,1.0418574888\H,-0.4956136417,1.5985055848,-1.0
 418574886\H,1.8434882702,0.6261155836,-0.8425203109\H,1.8434882702,0.6
 261155836,0.8425203111\H,0.4688180834,-1.6535594162,-1.0427739345\H,0.
 4688180834,-1.6535594162,1.0427739347\\Version=ES64L-G09RevE.01\State=
 1-A'\HF=-164.0661773,-164.0674642\RMSD=9.426e-09,3.400e-09\PG=CS [SG(B
 2N2),X(H8)]\\@


 THE WORLD IS NOT A HAMBURGER - YOU CAN'T HAVE IT YOUR WAY.
 Job cpu time:       0 days  0 hours  9 minutes 51.5 seconds.
 File lengths (MBytes):  RWF=      9 Int=      0 D2E=      0 Chk=      3 Scr=      1
 Normal termination of Gaussian 09 at Thu Mar  9 15:27:35 2017.
