compute-0-8.local
 Entering Gaussian System, Link 0=g09
 Initial command:
 /share/apps/g09RelE.01/g09/l1.exe "/state/partition1/berta/Gau-20047.inp" -scrdir="/state/partition1/berta/"
 Entering Link 1 = /share/apps/g09RelE.01/g09/l1.exe PID=     20048.
  
 Copyright (c) 1988,1990,1992,1993,1995,1998,2003,2009,2015,
            Gaussian, Inc.  All Rights Reserved.
  
 This is part of the Gaussian(R) 09 program.  It is based on
 the Gaussian(R) 03 system (copyright 2003, Gaussian, Inc.),
 the Gaussian(R) 98 system (copyright 1998, Gaussian, Inc.),
 the Gaussian(R) 94 system (copyright 1995, Gaussian, Inc.),
 the Gaussian 92(TM) system (copyright 1992, Gaussian, Inc.),
 the Gaussian 90(TM) system (copyright 1990, Gaussian, Inc.),
 the Gaussian 88(TM) system (copyright 1988, Gaussian, Inc.),
 the Gaussian 86(TM) system (copyright 1986, Carnegie Mellon
 University), and the Gaussian 82(TM) system (copyright 1983,
 Carnegie Mellon University). Gaussian is a federally registered
 trademark of Gaussian, Inc.
  
 This software contains proprietary and confidential information,
 including trade secrets, belonging to Gaussian, Inc.
  
 This software is provided under written license and may be
 used, copied, transmitted, or stored only in accord with that
 written license.
  
 The following legend is applicable only to US Government
 contracts under FAR:
  
                    RESTRICTED RIGHTS LEGEND
  
 Use, reproduction and disclosure by the US Government is
 subject to restrictions as set forth in subparagraphs (a)
 and (c) of the Commercial Computer Software - Restricted
 Rights clause in FAR 52.227-19.
  
 Gaussian, Inc.
 340 Quinnipiac St., Bldg. 40, Wallingford CT 06492
  
  
 ---------------------------------------------------------------
 Warning -- This program may not be used in any manner that
 competes with the business of Gaussian, Inc. or will provide
 assistance to any competitor of Gaussian, Inc.  The licensee
 of this program is prohibited from giving any competitor of
 Gaussian, Inc. access to this program.  By using this program,
 the user acknowledges that Gaussian, Inc. is engaged in the
 business of creating and licensing software in the field of
 computational chemistry and represents and warrants to the
 licensee that it is not a competitor of Gaussian, Inc. and that
 it will not use this program in any manner prohibited above.
 ---------------------------------------------------------------
  

 Cite this work as:
 Gaussian 09, Revision E.01,
 M. J. Frisch, G. W. Trucks, H. B. Schlegel, G. E. Scuseria, 
 M. A. Robb, J. R. Cheeseman, G. Scalmani, V. Barone, B. Mennucci, 
 G. A. Petersson, H. Nakatsuji, M. Caricato, X. Li, H. P. Hratchian, 
 A. F. Izmaylov, J. Bloino, G. Zheng, J. L. Sonnenberg, M. Hada, 
 M. Ehara, K. Toyota, R. Fukuda, J. Hasegawa, M. Ishida, T. Nakajima, 
 Y. Honda, O. Kitao, H. Nakai, T. Vreven, J. A. Montgomery, Jr., 
 J. E. Peralta, F. Ogliaro, M. Bearpark, J. J. Heyd, E. Brothers, 
 K. N. Kudin, V. N. Staroverov, T. Keith, R. Kobayashi, J. Normand, 
 K. Raghavachari, A. Rendell, J. C. Burant, S. S. Iyengar, J. Tomasi, 
 M. Cossi, N. Rega, J. M. Millam, M. Klene, J. E. Knox, J. B. Cross, 
 V. Bakken, C. Adamo, J. Jaramillo, R. Gomperts, R. E. Stratmann, 
 O. Yazyev, A. J. Austin, R. Cammi, C. Pomelli, J. W. Ochterski, 
 R. L. Martin, K. Morokuma, V. G. Zakrzewski, G. A. Voth, 
 P. Salvador, J. J. Dannenberg, S. Dapprich, A. D. Daniels, 
 O. Farkas, J. B. Foresman, J. V. Ortiz, J. Cioslowski, 
 and D. J. Fox, Gaussian, Inc., Wallingford CT, 2013.
 
 ******************************************
 Gaussian 09:  ES64L-G09RevE.01 30-Nov-2015
                 9-Mar-2017 
 ******************************************
 %chk=AB-AB-NHscan.chk
 %nproc=4
 Will use up to    4 processors via shared memory.
 %mem=8605MB
 -----------------------------------------------------------
 #P RwB97XD/6-311G(d,p)int(grid=ultrafine) opt(modred,loose)
 -----------------------------------------------------------
 1/7=-1,14=-1,18=120,19=15,26=4,38=1/1,3;
 2/9=110,12=2,17=6,18=5,40=1/2;
 3/5=4,6=6,7=101,11=2,16=1,25=1,30=1,71=1,74=-58,75=-5,116=1/1,2,3;
 4//1;
 5/5=2,38=5/2;
 6/7=2,8=2,9=2,10=2,28=1/1;
 7//1,2,3,16;
 1/7=-1,14=-1,18=20,19=15,26=4/3(2);
 2/9=110/2;
 99//99;
 2/9=110/2;
 3/5=4,6=6,7=101,11=2,16=1,25=1,30=1,71=1,74=-58,75=-5,116=1/1,2,3;
 4/5=5,16=3,69=1/1;
 5/5=2,38=5/2;
 7//1,2,3,16;
 1/7=-1,14=-1,18=20,19=15,26=4/3(-5);
 2/9=110/2;
 6/7=2,8=2,9=2,10=2,19=2,28=1/1;
 99/9=1/99;
 Leave Link    1 at Thu Mar  9 14:57:18 2017, MaxMem=  1127874560 cpu:         0.3
 (Enter /share/apps/g09RelE.01/g09/l101.exe)
 --------------------
 AB2-mult-scan3_1.gjf
 --------------------
 Symbolic Z-matrix:
 Charge =  0 Multiplicity = 1
 B                     0.00064  -1.17338   0. 
 N                     1.1996    0.17315   0. 
 N                    -1.19982  -0.17298   0. 
 B                     0.        1.17278   0. 
 H                    -1.78476  -0.18728   0.82365 
 H                    -1.78476  -0.18728  -0.82365 
 H                    -0.13358   1.7824    1.02675 
 H                    -0.13358   1.7824   -1.02675 
 H                     1.7846    0.18731  -0.82361 
 H                     1.7846    0.18731   0.82361 
 H                     0.13293  -1.78149  -1.02803 
 H                     0.13293  -1.78149   1.02803 
 
 Add virtual bond connecting atoms N2         and B1         Dist= 3.41D+00.
 Add virtual bond connecting atoms B4         and N3         Dist= 3.41D+00.
 The following ModRedundant input section has been read:
 B       1       2 S   1 0.1000                                                
 B       3       4 F                                                           
 
 NAtoms=     12 NQM=       12 NQMF=       0 NMMI=      0 NMMIF=      0
                NMic=       0 NMicF=      0.
                    Isotopes and Nuclear Properties:
 (Nuclear quadrupole moments (NQMom) in fm**2, nuclear magnetic moments (NMagM)
  in nuclear magnetons)

  Atom         1           2           3           4           5           6           7           8           9          10
 IAtWgt=          11          14          14          11           1           1           1           1           1           1
 AtmWgt=  11.0093053  14.0030740  14.0030740  11.0093053   1.0078250   1.0078250   1.0078250   1.0078250   1.0078250   1.0078250
 NucSpn=           3           2           2           3           1           1           1           1           1           1
 AtZEff=   0.0000000   0.0000000   0.0000000   0.0000000   0.0000000   0.0000000   0.0000000   0.0000000   0.0000000   0.0000000
 NQMom=    4.0590000   2.0440000   2.0440000   4.0590000   0.0000000   0.0000000   0.0000000   0.0000000   0.0000000   0.0000000
 NMagM=    2.6886370   0.4037610   0.4037610   2.6886370   2.7928460   2.7928460   2.7928460   2.7928460   2.7928460   2.7928460
 AtZNuc=   5.0000000   7.0000000   7.0000000   5.0000000   1.0000000   1.0000000   1.0000000   1.0000000   1.0000000   1.0000000

  Atom        11          12
 IAtWgt=           1           1
 AtmWgt=   1.0078250   1.0078250
 NucSpn=           1           1
 AtZEff=   0.0000000   0.0000000
 NQMom=    0.0000000   0.0000000
 NMagM=    2.7928460   2.7928460
 AtZNuc=   1.0000000   1.0000000
 Leave Link  101 at Thu Mar  9 14:57:18 2017, MaxMem=  1127874560 cpu:         1.5
 (Enter /share/apps/g09RelE.01/g09/l103.exe)

 GradGradGradGradGradGradGradGradGradGradGradGradGradGradGradGradGradGrad
 Berny optimization.
 Initialization pass.
                           ----------------------------
                           !    Initial Parameters    !
                           ! (Angstroms and Degrees)  !
 --------------------------                            --------------------------
 ! Name  Definition              Value          Derivative Info.                !
 --------------------------------------------------------------------------------
 ! R1    R(1,2)                  1.803          Scan                            !
 ! R2    R(1,3)                  1.5627         estimate D2E/DX2                !
 ! R3    R(1,11)                 1.2017         estimate D2E/DX2                !
 ! R4    R(1,12)                 1.2017         estimate D2E/DX2                !
 ! R5    R(2,4)                  1.5615         estimate D2E/DX2                !
 ! R6    R(2,9)                  1.0103         estimate D2E/DX2                !
 ! R7    R(2,10)                 1.0103         estimate D2E/DX2                !
 ! R8    R(3,4)                  1.803          Frozen                          !
 ! R9    R(3,5)                  1.0103         estimate D2E/DX2                !
 ! R10   R(3,6)                  1.0103         estimate D2E/DX2                !
 ! R11   R(4,7)                  1.2015         estimate D2E/DX2                !
 ! R12   R(4,8)                  1.2015         estimate D2E/DX2                !
 ! A1    A(2,1,3)               91.8762         estimate D2E/DX2                !
 ! A2    A(2,1,11)             107.7412         estimate D2E/DX2                !
 ! A3    A(2,1,12)             107.7412         estimate D2E/DX2                !
 ! A4    A(3,1,11)             114.1124         estimate D2E/DX2                !
 ! A5    A(3,1,12)             114.1124         estimate D2E/DX2                !
 ! A6    A(11,1,12)            117.6213         estimate D2E/DX2                !
 ! A7    A(1,2,4)               88.1224         estimate D2E/DX2                !
 ! A8    A(1,2,9)              113.2985         estimate D2E/DX2                !
 ! A9    A(1,2,10)             113.2985         estimate D2E/DX2                !
 ! A10   A(4,2,9)              115.8391         estimate D2E/DX2                !
 ! A11   A(4,2,10)             115.8391         estimate D2E/DX2                !
 ! A12   A(9,2,10)             109.2128         estimate D2E/DX2                !
 ! A13   A(1,3,4)               88.0872         estimate D2E/DX2                !
 ! A14   A(1,3,5)              115.8308         estimate D2E/DX2                !
 ! A15   A(1,3,6)              115.8308         estimate D2E/DX2                !
 ! A16   A(4,3,5)              113.3187         estimate D2E/DX2                !
 ! A17   A(4,3,6)              113.3187         estimate D2E/DX2                !
 ! A18   A(5,3,6)              109.2202         estimate D2E/DX2                !
 ! A19   A(2,4,3)               91.9141         estimate D2E/DX2                !
 ! A20   A(2,4,7)              114.2179         estimate D2E/DX2                !
 ! A21   A(2,4,8)              114.2179         estimate D2E/DX2                !
 ! A22   A(3,4,7)              107.7419         estimate D2E/DX2                !
 ! A23   A(3,4,8)              107.7419         estimate D2E/DX2                !
 ! A24   A(7,4,8)              117.4152         estimate D2E/DX2                !
 ! D1    D(3,1,2,4)              0.0            estimate D2E/DX2                !
 ! D2    D(3,1,2,9)           -117.4309         estimate D2E/DX2                !
 ! D3    D(3,1,2,10)           117.4309         estimate D2E/DX2                !
 ! D4    D(11,1,2,4)           116.0808         estimate D2E/DX2                !
 ! D5    D(11,1,2,9)            -1.3501         estimate D2E/DX2                !
 ! D6    D(11,1,2,10)         -126.4884         estimate D2E/DX2                !
 ! D7    D(12,1,2,4)          -116.0808         estimate D2E/DX2                !
 ! D8    D(12,1,2,9)           126.4884         estimate D2E/DX2                !
 ! D9    D(12,1,2,10)            1.3501         estimate D2E/DX2                !
 ! D10   D(2,1,3,4)              0.0            estimate D2E/DX2                !
 ! D11   D(2,1,3,5)           -115.0788         estimate D2E/DX2                !
 ! D12   D(2,1,3,6)            115.0788         estimate D2E/DX2                !
 ! D13   D(11,1,3,4)          -110.4071         estimate D2E/DX2                !
 ! D14   D(11,1,3,5)           134.5141         estimate D2E/DX2                !
 ! D15   D(11,1,3,6)             4.6717         estimate D2E/DX2                !
 ! D16   D(12,1,3,4)           110.4071         estimate D2E/DX2                !
 ! D17   D(12,1,3,5)            -4.6717         estimate D2E/DX2                !
 ! D18   D(12,1,3,6)          -134.5141         estimate D2E/DX2                !
 ! D19   D(1,2,4,3)              0.0            estimate D2E/DX2                !
 ! D20   D(1,2,4,7)            110.4479         estimate D2E/DX2                !
 ! D21   D(1,2,4,8)           -110.4479         estimate D2E/DX2                !
 ! D22   D(9,2,4,3)            115.0759         estimate D2E/DX2                !
 ! D23   D(9,2,4,7)           -134.4763         estimate D2E/DX2                !
 ! D24   D(9,2,4,8)              4.628          estimate D2E/DX2                !
 ! D25   D(10,2,4,3)          -115.0759         estimate D2E/DX2                !
 ! D26   D(10,2,4,7)            -4.628          estimate D2E/DX2                !
 ! D27   D(10,2,4,8)           134.4763         estimate D2E/DX2                !
 ! D28   D(1,3,4,2)              0.0            estimate D2E/DX2                !
 ! D29   D(1,3,4,7)           -116.2076         estimate D2E/DX2                !
 ! D30   D(1,3,4,8)            116.2076         estimate D2E/DX2                !
 ! D31   D(5,3,4,2)            117.409          estimate D2E/DX2                !
 ! D32   D(5,3,4,7)              1.2014         estimate D2E/DX2                !
 ! D33   D(5,3,4,8)           -126.3833         estimate D2E/DX2                !
 ! D34   D(6,3,4,2)           -117.409          estimate D2E/DX2                !
 ! D35   D(6,3,4,7)            126.3833         estimate D2E/DX2                !
 ! D36   D(6,3,4,8)             -1.2014         estimate D2E/DX2                !
 --------------------------------------------------------------------------------
 Trust Radius=3.00D-01 FncErr=1.00D-07 GrdErr=1.00D-06
 Number of optimizations in scan=   2
 Number of steps in this run=     82 maximum allowed number of steps=    100.
 GradGradGradGradGradGradGradGradGradGradGradGradGradGradGradGradGradGrad

 Leave Link  103 at Thu Mar  9 14:57:18 2017, MaxMem=  1127874560 cpu:         0.1
 (Enter /share/apps/g09RelE.01/g09/l202.exe)
                          Input orientation:                          
 ---------------------------------------------------------------------
 Center     Atomic      Atomic             Coordinates (Angstroms)
 Number     Number       Type             X           Y           Z
 ---------------------------------------------------------------------
      1          5           0        0.000636   -1.173379    0.000000
      2          7           0        1.199596    0.173145    0.000000
      3          7           0       -1.199819   -0.172984    0.000000
      4          5           0        0.000000    1.172775    0.000000
      5          1           0       -1.784764   -0.187275    0.823650
      6          1           0       -1.784764   -0.187275   -0.823650
      7          1           0       -0.133576    1.782400    1.026751
      8          1           0       -0.133576    1.782400   -1.026751
      9          1           0        1.784595    0.187313   -0.823609
     10          1           0        1.784595    0.187313    0.823609
     11          1           0        0.132933   -1.781490   -1.028029
     12          1           0        0.132933   -1.781490    1.028029
 ---------------------------------------------------------------------
                    Distance matrix (angstroms):
                    1          2          3          4          5
     1  B    0.000000
     2  N    1.802951   0.000000
     3  N    1.562652   2.424252   0.000000
     4  B    2.346154   1.561503   1.802951   0.000000
     5  H    2.199649   3.116842   1.010329   2.390297   0.000000
     6  H    2.199649   3.116842   1.010329   2.390297   1.647300
     7  H    3.131910   2.328361   2.452472   1.201542   2.578234
     8  H    3.131910   2.328361   2.452472   1.201542   3.167022
     9  H    2.390047   1.010325   3.116869   2.198692   3.948937
    10  H    2.390047   1.010325   3.116869   2.198692   3.588961
    11  H    1.201726   2.452593   2.328167   3.130846   3.106091
    12  H    1.201726   2.452593   2.328167   3.130846   2.502170
                    6          7          8          9         10
     6  H    0.000000
     7  H    3.167022   0.000000
     8  H    2.578234   2.053502   0.000000
     9  H    3.588961   3.106045   2.502988   0.000000
    10  H    3.948937   2.502988   3.106045   1.647218   0.000000
    11  H    2.502170   4.122434   3.573841   2.577976   3.167449
    12  H    3.106091   3.573841   4.122434   3.167449   2.577976
                   11         12
    11  H    0.000000
    12  H    2.056058   0.000000
 Stoichiometry    B2H8N2
 Framework group  CS[SG(B2N2),X(H8)]
 Deg. of freedom    17
 Full point group                 CS      NOp   2
 Largest Abelian subgroup         CS      NOp   2
 Largest concise Abelian subgroup CS      NOp   2
                         Standard orientation:                         
 ---------------------------------------------------------------------
 Center     Atomic      Atomic             Coordinates (Angstroms)
 Number     Number       Type             X           Y           Z
 ---------------------------------------------------------------------
      1          5           0        0.000636   -1.173379    0.000000
      2          7           0        1.199596    0.173145    0.000000
      3          7           0       -1.199819   -0.172984    0.000000
      4          5           0        0.000000    1.172775    0.000000
      5          1           0       -1.784764   -0.187275    0.823650
      6          1           0       -1.784764   -0.187275   -0.823650
      7          1           0       -0.133576    1.782400    1.026751
      8          1           0       -0.133576    1.782400   -1.026751
      9          1           0        1.784595    0.187313   -0.823609
     10          1           0        1.784595    0.187313    0.823609
     11          1           0        0.132933   -1.781490   -1.028029
     12          1           0        0.132933   -1.781490    1.028029
 ---------------------------------------------------------------------
 Rotational constants (GHZ):     10.5416785      7.9787738      5.1939348
 Leave Link  202 at Thu Mar  9 14:57:18 2017, MaxMem=  1127874560 cpu:         0.0
 (Enter /share/apps/g09RelE.01/g09/l301.exe)
 Standard basis: 6-311G(d,p) (5D, 7F)
 Ernie: Thresh=  0.10000D-02 Tol=  0.10000D-05 Strict=F.
 There are    80 symmetry adapted cartesian basis functions of A'  symmetry.
 There are    44 symmetry adapted cartesian basis functions of A"  symmetry.
 There are    76 symmetry adapted basis functions of A'  symmetry.
 There are    44 symmetry adapted basis functions of A"  symmetry.
   120 basis functions,   192 primitive gaussians,   124 cartesian basis functions
    16 alpha electrons       16 beta electrons
       nuclear repulsion energy       119.1363798094 Hartrees.
 IExCor= 4639 DFT=T Ex+Corr=wB97XD ExCW=0 ScaHFX=  1.000000
 ScaDFX=  1.000000  1.000000  1.000000  1.000000 ScalE2=  1.000000  1.000000
 IRadAn=      5 IRanWt=     -1 IRanGd=            0 ICorTp=0 IEmpDi=121
  HFx wShort=  0.000000 wLong=  0.200000 cFull=  0.222036 cShort=  0.000000 cLong=  0.777964
  DFx wShort=  0.000000 wLong=  0.200000 cFull=  0.000000 cShort=  0.000000 cLong=  1.000000
 NAtoms=   12 NActive=   12 NUniq=    8 SFac= 2.25D+00 NAtFMM=   60 NAOKFM=F Big=F
 Integral buffers will be    131072 words long.
 Raffenetti 2 integral format.
 Two-electron integral symmetry is turned on.
 R6Disp:  Grimme-D2 Dispersion energy=       -0.0053993711 Hartrees.
 Nuclear repulsion after empirical dispersion term =      119.1309804383 Hartrees.
 Leave Link  301 at Thu Mar  9 14:57:18 2017, MaxMem=  1127874560 cpu:         0.3
 (Enter /share/apps/g09RelE.01/g09/l302.exe)
 NPDir=0 NMtPBC=     1 NCelOv=     1 NCel=       1 NClECP=     1 NCelD=      1
         NCelK=      1 NCelE2=     1 NClLst=     1 CellRange=     0.0.
 One-electron integrals computed using PRISM.
 One-electron integral symmetry used in STVInt
 NBasis=   120 RedAO= T EigKep=  5.19D-03  NBF=    76    44
 NBsUse=   120 1.00D-06 EigRej= -1.00D+00 NBFU=    76    44
 Precomputing XC quadrature grid using
 IXCGrd= 4 IRadAn=           5 IRanWt=          -1 IRanGd=           0 AccXCQ= 0.00D+00.
 Generated NRdTot=       0 NPtTot=           0 NUsed=           0 NTot=          32
 NSgBfM=   124   124   124   124   124 MxSgAt=    12 MxSgA2=    12.
 Leave Link  302 at Thu Mar  9 14:57:19 2017, MaxMem=  1127874560 cpu:         1.3
 (Enter /share/apps/g09RelE.01/g09/l303.exe)
 DipDrv:  MaxL=1.
 Leave Link  303 at Thu Mar  9 14:57:19 2017, MaxMem=  1127874560 cpu:         0.2
 (Enter /share/apps/g09RelE.01/g09/l401.exe)
 ExpMin= 9.89D-02 ExpMax= 6.29D+03 ExpMxC= 9.49D+02 IAcc=3 IRadAn=         5 AccDes= 0.00D+00
 Harris functional with IExCor= 4639 and IRadAn=       5 diagonalized for initial guess.
 HarFok:  IExCor= 4639 AccDes= 0.00D+00 IRadAn=         5 IDoV= 1 UseB2=F ITyADJ=14
 ICtDFT=  3500011 ScaDFX=  1.000000  1.000000  1.000000  1.000000
 FoFCou: FMM=F IPFlag=           0 FMFlag=      100000 FMFlg1=           0
         NFxFlg=           0 DoJE=T BraDBF=F KetDBF=T FulRan=T
         wScrn=  0.000000 ICntrl=     500 IOpCl=  0 I1Cent=   200000004 NGrid=           0
         NMat0=    1 NMatS0=      1 NMatT0=    0 NMatD0=    1 NMtDS0=    0 NMtDT0=    0
 Petite list used in FoFCou.
 Harris En= -156.220116872368    
 JPrj=0 DoOrth=F DoCkMO=F.
 Initial guess orbital symmetries:
       Occupied  (A') (A') (A') (A') (A') (A') (A') (A') (A") (A")
                 (A') (A') (A') (A") (A") (A')
       Virtual   (A') (A') (A") (A') (A') (A') (A") (A') (A") (A')
                 (A') (A") (A") (A') (A') (A") (A') (A') (A') (A")
                 (A") (A') (A') (A') (A") (A') (A') (A") (A') (A")
                 (A') (A") (A') (A') (A') (A") (A") (A') (A') (A")
                 (A') (A") (A') (A') (A") (A') (A") (A') (A") (A')
                 (A') (A") (A") (A") (A') (A') (A") (A") (A') (A')
                 (A') (A") (A") (A') (A') (A") (A') (A') (A") (A')
                 (A') (A') (A') (A') (A") (A") (A') (A") (A") (A')
                 (A') (A") (A") (A') (A') (A') (A") (A') (A') (A')
                 (A") (A") (A') (A") (A') (A') (A') (A') (A") (A")
                 (A') (A') (A') (A')
 The electronic state of the initial guess is 1-A'.
 Leave Link  401 at Thu Mar  9 14:57:20 2017, MaxMem=  1127874560 cpu:         6.1
 (Enter /share/apps/g09RelE.01/g09/l502.exe)
 Closed shell SCF:
 Using DIIS extrapolation, IDIIS=  1040.
 Integral symmetry usage will be decided dynamically.
 Keep R1 ints in memory in symmetry-blocked form, NReq=79321962.
 IVT=       66538 IEndB=       66538 NGot=  1127874560 MDV=  1114529905
 LenX=  1114529905 LenY=  1114514088
 Requested convergence on RMS density matrix=1.00D-08 within 128 cycles.
 Requested convergence on MAX density matrix=1.00D-06.
 Requested convergence on             energy=1.00D-06.
 No special actions if energy rises.
 FoFCou: FMM=F IPFlag=           0 FMFlag=           0 FMFlg1=           0
         NFxFlg=           0 DoJE=F BraDBF=F KetDBF=F FulRan=T
         wScrn=  0.000000 ICntrl=     600 IOpCl=  0 I1Cent=           0 NGrid=           0
         NMat0=    1 NMatS0=   7260 NMatT0=    0 NMatD0=    1 NMtDS0=    0 NMtDT0=    0
 Petite list used in FoFCou.
 Integral accuracy reduced to 1.0D-05 until final iterations.

 Cycle   1  Pass 0  IDiag  1:
 E= -164.034047224524    
 DIIS: error= 1.10D-01 at cycle   1 NSaved=   1.
 NSaved= 1 IEnMin= 1 EnMin= -164.034047224524     IErMin= 1 ErrMin= 1.10D-01
 ErrMax= 1.10D-01  0.00D+00 EMaxC= 1.00D-01 BMatC= 3.59D-01 BMatP= 3.59D-01
 IDIUse=3 WtCom= 0.00D+00 WtEn= 1.00D+00
 Coeff-Com:  0.100D+01
 Coeff-En:   0.100D+01
 Coeff:      0.100D+01
 Gap=     0.487 Goal=   None    Shift=    0.000
 GapD=    0.487 DampG=2.000 DampE=0.250 DampFc=0.5000 IDamp=-1.
 Damping current iteration by 5.00D-01
 RMSDP=2.16D-03 MaxDP=3.20D-02              OVMax= 8.65D-02

 Cycle   2  Pass 0  IDiag  1:
 E= -164.063879241964     Delta-E=       -0.029832017440 Rises=F Damp=T
 DIIS: error= 5.14D-02 at cycle   2 NSaved=   2.
 NSaved= 2 IEnMin= 2 EnMin= -164.063879241964     IErMin= 2 ErrMin= 5.14D-02
 ErrMax= 5.14D-02  0.00D+00 EMaxC= 1.00D-01 BMatC= 7.83D-02 BMatP= 3.59D-01
 IDIUse=3 WtCom= 4.86D-01 WtEn= 5.14D-01
 Coeff-Com: -0.793D+00 0.179D+01
 Coeff-En:   0.000D+00 0.100D+01
 Coeff:     -0.385D+00 0.138D+01
 Gap=     0.459 Goal=   None    Shift=    0.000
 RMSDP=8.28D-04 MaxDP=1.29D-02 DE=-2.98D-02 OVMax= 3.01D-02

 Cycle   3  Pass 0  IDiag  1:
 E= -164.091164136156     Delta-E=       -0.027284894193 Rises=F Damp=F
 DIIS: error= 5.48D-03 at cycle   3 NSaved=   3.
 NSaved= 3 IEnMin= 3 EnMin= -164.091164136156     IErMin= 3 ErrMin= 5.48D-03
 ErrMax= 5.48D-03  0.00D+00 EMaxC= 1.00D-01 BMatC= 1.77D-03 BMatP= 7.83D-02
 IDIUse=3 WtCom= 9.45D-01 WtEn= 5.48D-02
 Coeff-Com: -0.242D+00 0.520D+00 0.721D+00
 Coeff-En:   0.000D+00 0.000D+00 0.100D+01
 Coeff:     -0.228D+00 0.492D+00 0.736D+00
 Gap=     0.463 Goal=   None    Shift=    0.000
 RMSDP=2.40D-04 MaxDP=7.38D-03 DE=-2.73D-02 OVMax= 1.12D-02

 Cycle   4  Pass 0  IDiag  1:
 E= -164.092485129448     Delta-E=       -0.001320993291 Rises=F Damp=F
 DIIS: error= 1.41D-03 at cycle   4 NSaved=   4.
 NSaved= 4 IEnMin= 4 EnMin= -164.092485129448     IErMin= 4 ErrMin= 1.41D-03
 ErrMax= 1.41D-03  0.00D+00 EMaxC= 1.00D-01 BMatC= 9.24D-05 BMatP= 1.77D-03
 IDIUse=3 WtCom= 9.86D-01 WtEn= 1.41D-02
 Coeff-Com: -0.574D-01 0.126D+00 0.263D+00 0.669D+00
 Coeff-En:   0.000D+00 0.000D+00 0.000D+00 0.100D+01
 Coeff:     -0.566D-01 0.124D+00 0.259D+00 0.674D+00
 Gap=     0.460 Goal=   None    Shift=    0.000
 RMSDP=5.82D-05 MaxDP=1.32D-03 DE=-1.32D-03 OVMax= 2.21D-03

 Cycle   5  Pass 0  IDiag  1:
 E= -164.092567997030     Delta-E=       -0.000082867582 Rises=F Damp=F
 DIIS: error= 2.17D-04 at cycle   5 NSaved=   5.
 NSaved= 5 IEnMin= 5 EnMin= -164.092567997030     IErMin= 5 ErrMin= 2.17D-04
 ErrMax= 2.17D-04  0.00D+00 EMaxC= 1.00D-01 BMatC= 3.04D-06 BMatP= 9.24D-05
 IDIUse=3 WtCom= 9.98D-01 WtEn= 2.17D-03
 Coeff-Com:  0.222D-01-0.479D-01-0.484D-01 0.702D-01 0.100D+01
 Coeff-En:   0.000D+00 0.000D+00 0.000D+00 0.000D+00 0.100D+01
 Coeff:      0.221D-01-0.478D-01-0.483D-01 0.700D-01 0.100D+01
 Gap=     0.461 Goal=   None    Shift=    0.000
 RMSDP=2.63D-05 MaxDP=4.77D-04 DE=-8.29D-05 OVMax= 1.14D-03

 Cycle   6  Pass 0  IDiag  1:
 E= -164.092573889455     Delta-E=       -0.000005892425 Rises=F Damp=F
 DIIS: error= 4.47D-05 at cycle   6 NSaved=   6.
 NSaved= 6 IEnMin= 6 EnMin= -164.092573889455     IErMin= 6 ErrMin= 4.47D-05
 ErrMax= 4.47D-05  0.00D+00 EMaxC= 1.00D-01 BMatC= 8.57D-08 BMatP= 3.04D-06
 IDIUse=1 WtCom= 1.00D+00 WtEn= 0.00D+00
 Coeff-Com:  0.105D-02-0.225D-02-0.458D-02-0.299D-01-0.891D-01 0.112D+01
 Coeff:      0.105D-02-0.225D-02-0.458D-02-0.299D-01-0.891D-01 0.112D+01
 Gap=     0.461 Goal=   None    Shift=    0.000
 RMSDP=6.58D-06 MaxDP=8.42D-05 DE=-5.89D-06 OVMax= 3.87D-04

 Initial convergence to 1.0D-05 achieved.  Increase integral accuracy.
 Cycle   7  Pass 1  IDiag  1:
 E= -164.092574780075     Delta-E=       -0.000000890620 Rises=F Damp=F
 DIIS: error= 4.11D-05 at cycle   1 NSaved=   1.
 NSaved= 1 IEnMin= 1 EnMin= -164.092574780075     IErMin= 1 ErrMin= 4.11D-05
 ErrMax= 4.11D-05  0.00D+00 EMaxC= 1.00D-01 BMatC= 2.06D-07 BMatP= 2.06D-07
 IDIUse=1 WtCom= 1.00D+00 WtEn= 0.00D+00
 Coeff-Com:  0.100D+01
 Coeff:      0.100D+01
 Gap=     0.461 Goal=   None    Shift=    0.000
 RMSDP=6.58D-06 MaxDP=8.42D-05 DE=-8.91D-07 OVMax= 1.19D-04

 Cycle   8  Pass 1  IDiag  1:
 E= -164.092574968322     Delta-E=       -0.000000188248 Rises=F Damp=F
 DIIS: error= 9.02D-06 at cycle   2 NSaved=   2.
 NSaved= 2 IEnMin= 2 EnMin= -164.092574968322     IErMin= 2 ErrMin= 9.02D-06
 ErrMax= 9.02D-06  0.00D+00 EMaxC= 1.00D-01 BMatC= 5.93D-09 BMatP= 2.06D-07
 IDIUse=1 WtCom= 1.00D+00 WtEn= 0.00D+00
 Coeff-Com: -0.446D-01 0.104D+01
 Coeff:     -0.446D-01 0.104D+01
 Gap=     0.461 Goal=   None    Shift=    0.000
 RMSDP=9.92D-07 MaxDP=1.91D-05 DE=-1.88D-07 OVMax= 3.76D-05

 Cycle   9  Pass 1  IDiag  1:
 E= -164.092574976174     Delta-E=       -0.000000007852 Rises=F Damp=F
 DIIS: error= 5.22D-06 at cycle   3 NSaved=   3.
 NSaved= 3 IEnMin= 3 EnMin= -164.092574976174     IErMin= 3 ErrMin= 5.22D-06
 ErrMax= 5.22D-06  0.00D+00 EMaxC= 1.00D-01 BMatC= 1.30D-09 BMatP= 5.93D-09
 IDIUse=1 WtCom= 1.00D+00 WtEn= 0.00D+00
 Coeff-Com: -0.390D-01 0.298D+00 0.741D+00
 Coeff:     -0.390D-01 0.298D+00 0.741D+00
 Gap=     0.461 Goal=   None    Shift=    0.000
 RMSDP=2.73D-07 MaxDP=6.11D-06 DE=-7.85D-09 OVMax= 1.31D-05

 Cycle  10  Pass 1  IDiag  1:
 E= -164.092574977714     Delta-E=       -0.000000001540 Rises=F Damp=F
 DIIS: error= 9.93D-07 at cycle   4 NSaved=   4.
 NSaved= 4 IEnMin= 4 EnMin= -164.092574977714     IErMin= 4 ErrMin= 9.93D-07
 ErrMax= 9.93D-07  0.00D+00 EMaxC= 1.00D-01 BMatC= 9.47D-11 BMatP= 1.30D-09
 IDIUse=1 WtCom= 1.00D+00 WtEn= 0.00D+00
 Coeff-Com: -0.366D-02-0.233D-01 0.154D+00 0.873D+00
 Coeff:     -0.366D-02-0.233D-01 0.154D+00 0.873D+00
 Gap=     0.461 Goal=   None    Shift=    0.000
 RMSDP=1.15D-07 MaxDP=2.02D-06 DE=-1.54D-09 OVMax= 6.80D-06

 Cycle  11  Pass 1  IDiag  1:
 E= -164.092574977853     Delta-E=       -0.000000000139 Rises=F Damp=F
 DIIS: error= 4.72D-07 at cycle   5 NSaved=   5.
 NSaved= 5 IEnMin= 5 EnMin= -164.092574977853     IErMin= 5 ErrMin= 4.72D-07
 ErrMax= 4.72D-07  0.00D+00 EMaxC= 1.00D-01 BMatC= 2.06D-11 BMatP= 9.47D-11
 IDIUse=1 WtCom= 1.00D+00 WtEn= 0.00D+00
 Coeff-Com:  0.230D-02-0.399D-01-0.355D-02 0.350D+00 0.692D+00
 Coeff:      0.230D-02-0.399D-01-0.355D-02 0.350D+00 0.692D+00
 Gap=     0.461 Goal=   None    Shift=    0.000
 RMSDP=3.84D-08 MaxDP=1.01D-06 DE=-1.39D-10 OVMax= 2.32D-06

 Cycle  12  Pass 1  IDiag  1:
 E= -164.092574977878     Delta-E=       -0.000000000025 Rises=F Damp=F
 DIIS: error= 1.75D-07 at cycle   6 NSaved=   6.
 NSaved= 6 IEnMin= 6 EnMin= -164.092574977878     IErMin= 6 ErrMin= 1.75D-07
 ErrMax= 1.75D-07  0.00D+00 EMaxC= 1.00D-01 BMatC= 1.28D-12 BMatP= 2.06D-11
 IDIUse=1 WtCom= 1.00D+00 WtEn= 0.00D+00
 Coeff-Com:  0.882D-03-0.366D-02-0.226D-01-0.751D-01 0.125D+00 0.975D+00
 Coeff:      0.882D-03-0.366D-02-0.226D-01-0.751D-01 0.125D+00 0.975D+00
 Gap=     0.461 Goal=   None    Shift=    0.000
 RMSDP=2.11D-08 MaxDP=3.04D-07 DE=-2.51D-11 OVMax= 1.55D-06

 Cycle  13  Pass 1  IDiag  1:
 E= -164.092574977882     Delta-E=       -0.000000000003 Rises=F Damp=F
 DIIS: error= 4.39D-08 at cycle   7 NSaved=   7.
 NSaved= 7 IEnMin= 7 EnMin= -164.092574977882     IErMin= 7 ErrMin= 4.39D-08
 ErrMax= 4.39D-08  0.00D+00 EMaxC= 1.00D-01 BMatC= 5.52D-14 BMatP= 1.28D-12
 IDIUse=1 WtCom= 1.00D+00 WtEn= 0.00D+00
 Coeff-Com: -0.857D-04 0.186D-02-0.625D-03-0.168D-01-0.406D-01 0.213D-01
 Coeff-Com:  0.103D+01
 Coeff:     -0.857D-04 0.186D-02-0.625D-03-0.168D-01-0.406D-01 0.213D-01
 Coeff:      0.103D+01
 Gap=     0.461 Goal=   None    Shift=    0.000
 RMSDP=4.52D-09 MaxDP=6.73D-08 DE=-3.35D-12 OVMax= 3.80D-07

 SCF Done:  E(RwB97XD) =  -164.092574978     A.U. after   13 cycles
            NFock= 13  Conv=0.45D-08     -V/T= 2.0058
 KE= 1.631406558200D+02 PE=-6.191906812415D+02 EE= 1.728264700054D+02
 Leave Link  502 at Thu Mar  9 14:57:37 2017, MaxMem=  1127874560 cpu:        64.0
 (Enter /share/apps/g09RelE.01/g09/l601.exe)
 Copying SCF densities to generalized density rwf, IOpCl= 0 IROHF=0.

 **********************************************************************

            Population analysis using the SCF density.

 **********************************************************************

 Orbital symmetries:
       Occupied  (A') (A') (A') (A') (A') (A') (A') (A") (A') (A")
                 (A') (A') (A') (A") (A") (A')
       Virtual   (A') (A') (A") (A') (A") (A') (A') (A') (A") (A')
                 (A') (A") (A") (A') (A') (A') (A") (A') (A') (A")
                 (A") (A') (A') (A') (A") (A') (A') (A") (A') (A')
                 (A") (A") (A') (A') (A') (A") (A") (A') (A') (A")
                 (A') (A") (A') (A') (A") (A") (A') (A') (A") (A')
                 (A') (A") (A") (A") (A') (A") (A') (A") (A') (A')
                 (A') (A") (A') (A") (A') (A") (A') (A') (A") (A')
                 (A') (A') (A') (A') (A") (A") (A') (A") (A") (A')
                 (A") (A') (A") (A') (A') (A') (A") (A') (A') (A')
                 (A") (A") (A') (A") (A') (A') (A') (A') (A") (A")
                 (A') (A') (A') (A')
 The electronic state is 1-A'.
 Alpha  occ. eigenvalues --  -14.44371 -14.44358  -6.83752  -6.83728  -0.99861
 Alpha  occ. eigenvalues --   -0.95887  -0.64369  -0.61161  -0.59365  -0.58403
 Alpha  occ. eigenvalues --   -0.47735  -0.46355  -0.44994  -0.39490  -0.38301
 Alpha  occ. eigenvalues --   -0.35522
 Alpha virt. eigenvalues --    0.10559   0.10968   0.14303   0.17411   0.19001
 Alpha virt. eigenvalues --    0.20368   0.20998   0.21894   0.23706   0.24582
 Alpha virt. eigenvalues --    0.25075   0.26134   0.33425   0.38556   0.40000
 Alpha virt. eigenvalues --    0.44010   0.45058   0.46522   0.47875   0.48285
 Alpha virt. eigenvalues --    0.50924   0.52456   0.54418   0.55746   0.61092
 Alpha virt. eigenvalues --    0.63844   0.64624   0.68611   0.74289   0.78481
 Alpha virt. eigenvalues --    0.79349   0.80211   0.80626   0.88495   0.92649
 Alpha virt. eigenvalues --    1.01996   1.14648   1.18879   1.21613   1.21822
 Alpha virt. eigenvalues --    1.23064   1.25544   1.26267   1.26970   1.32239
 Alpha virt. eigenvalues --    1.38692   1.38710   1.41486   1.63308   1.69395
 Alpha virt. eigenvalues --    1.71234   1.72939   1.74172   1.76667   1.79403
 Alpha virt. eigenvalues --    1.83783   1.84218   1.86780   1.88675   1.92040
 Alpha virt. eigenvalues --    1.96143   2.00435   2.01206   2.01819   2.10821
 Alpha virt. eigenvalues --    2.13279   2.17431   2.20049   2.24496   2.25390
 Alpha virt. eigenvalues --    2.32256   2.38580   2.45605   2.47507   2.58238
 Alpha virt. eigenvalues --    2.58262   2.59293   2.68335   2.68685   2.69125
 Alpha virt. eigenvalues --    2.76840   2.78262   2.81053   2.87373   2.88596
 Alpha virt. eigenvalues --    2.89190   2.92994   2.96612   2.98797   3.02915
 Alpha virt. eigenvalues --    3.05626   3.15449   3.23226   3.31632   4.20675
 Alpha virt. eigenvalues --    4.23099   4.53426   4.69907   4.82161   4.83259
 Alpha virt. eigenvalues --   14.58910  14.83871  35.65120  35.72185
          Condensed to atoms (all electrons):
               1          2          3          4          5          6
     1  B    3.630942   0.238616   0.297393  -0.062306  -0.026330  -0.026330
     2  N    0.238616   6.367613  -0.089990   0.297690   0.005507   0.005507
     3  N    0.297393  -0.089990   6.368480   0.238694   0.366925   0.366925
     4  B   -0.062306   0.297690   0.238694   3.630907  -0.015129  -0.015129
     5  H   -0.026330   0.005507   0.366925  -0.015129   0.462925  -0.027580
     6  H   -0.026330   0.005507   0.366925  -0.015129  -0.027580   0.462925
     7  H    0.002751  -0.022309  -0.022300   0.430661  -0.005139   0.002946
     8  H    0.002751  -0.022309  -0.022300   0.430661   0.002946  -0.005139
     9  H   -0.015111   0.366937   0.005510  -0.026372  -0.000536  -0.000089
    10  H   -0.015111   0.366937   0.005510  -0.026372  -0.000089  -0.000536
    11  H    0.430615  -0.022303  -0.022370   0.002772   0.004477  -0.009888
    12  H    0.430615  -0.022303  -0.022370   0.002772  -0.009888   0.004477
               7          8          9         10         11         12
     1  B    0.002751   0.002751  -0.015111  -0.015111   0.430615   0.430615
     2  N   -0.022309  -0.022309   0.366937   0.366937  -0.022303  -0.022303
     3  N   -0.022300  -0.022300   0.005510   0.005510  -0.022370  -0.022370
     4  B    0.430661   0.430661  -0.026372  -0.026372   0.002772   0.002772
     5  H   -0.005139   0.002946  -0.000536  -0.000089   0.004477  -0.009888
     6  H    0.002946  -0.005139  -0.000089  -0.000536  -0.009888   0.004477
     7  H    0.698521  -0.017240   0.004483  -0.009911  -0.001085   0.001370
     8  H   -0.017240   0.698521  -0.009911   0.004483   0.001370  -0.001085
     9  H    0.004483  -0.009911   0.462920  -0.027594  -0.005139   0.002943
    10  H   -0.009911   0.004483  -0.027594   0.462920   0.002943  -0.005139
    11  H   -0.001085   0.001370  -0.005139   0.002943   0.698238  -0.017033
    12  H    0.001370  -0.001085   0.002943  -0.005139  -0.017033   0.698238
 Mulliken charges:
               1
     1  B    0.111504
     2  N   -0.469594
     3  N   -0.470108
     4  B    0.111150
     5  H    0.241911
     6  H    0.241911
     7  H   -0.062749
     8  H   -0.062749
     9  H    0.241959
    10  H    0.241959
    11  H   -0.062597
    12  H   -0.062597
 Sum of Mulliken charges =  -0.00000
 Mulliken charges with hydrogens summed into heavy atoms:
               1
     1  B   -0.013691
     2  N    0.014324
     3  N    0.013714
     4  B   -0.014347
 Electronic spatial extent (au):  <R**2>=            300.2000
 Charge=             -0.0000 electrons
 Dipole moment (field-independent basis, Debye):
    X=              0.0036    Y=             -0.0034    Z=             -0.0000  Tot=              0.0050
 Quadrupole moment (field-independent basis, Debye-Ang):
   XX=            -19.0893   YY=            -36.0484   ZZ=            -27.2151
   XY=              1.7136   XZ=              0.0000   YZ=              0.0000
 Traceless Quadrupole moment (field-independent basis, Debye-Ang):
   XX=              8.3616   YY=             -8.5975   ZZ=              0.2359
   XY=              1.7136   XZ=              0.0000   YZ=              0.0000
 Octapole moment (field-independent basis, Debye-Ang**2):
  XXX=              0.0075  YYY=             -0.0035  ZZZ=             -0.0000  XYY=             -0.0000
  XXY=              0.0021  XXZ=              0.0000  XZZ=              0.0003  YZZ=             -0.0049
  YYZ=              0.0000  XYZ=             -0.0000
 Hexadecapole moment (field-independent basis, Debye-Ang**3):
 XXXX=           -128.2988 YYYY=           -238.9321 ZZZZ=            -67.6626 XXXY=             -1.4788
 XXXZ=             -0.0000 YYYX=             -3.0239 YYYZ=             -0.0000 ZZZX=              0.0000
 ZZZY=              0.0000 XXYY=            -64.1703 XXZZ=            -26.1868 YYZZ=            -53.8687
 XXYZ=             -0.0000 YYXZ=              0.0000 ZZXY=             -0.0367
 N-N= 1.191309804383D+02 E-N=-6.191906825737D+02  KE= 1.631406558200D+02
 Symmetry A'   KE= 1.547399399055D+02
 Symmetry A"   KE= 8.400715914467D+00
 No NMR shielding tensors so no spin-rotation constants.
 Leave Link  601 at Thu Mar  9 14:57:37 2017, MaxMem=  1127874560 cpu:         0.8
 (Enter /share/apps/g09RelE.01/g09/l701.exe)
 Compute integral first derivatives.
 ... and contract with generalized density number  0.
 R6Disp: Adding Grimme-D2 dispersion energy 1st derivatives to the gradient.
 Leave Link  701 at Thu Mar  9 14:57:37 2017, MaxMem=  1127874560 cpu:         0.8
 (Enter /share/apps/g09RelE.01/g09/l702.exe)
 L702 exits ... SP integral derivatives will be done elsewhere.
 Leave Link  702 at Thu Mar  9 14:57:37 2017, MaxMem=  1127874560 cpu:         0.1
 (Enter /share/apps/g09RelE.01/g09/l703.exe)
 Compute integral first derivatives, UseDBF=F ICtDFT=           0.
 Integral derivatives from FoFJK, PRISM(SPDF).
 Calling FoFJK, ICntrl=      2127 FMM=F ISym2X=1 I1Cent= 0 IOpClX= 0 NMat=1 NMatS=1 NMatT=0.
 FoFJK:  IHMeth= 1 ICntrl=    2127 DoSepK=T KAlg= 0 I1Cent=   0 FoldK=F
 IRaf=         1 NMat=   1 IRICut=       1 DoRegI=T DoRafI=F ISym2E= 1.
 FoFCou: FMM=F IPFlag=           0 FMFlag=      100000 FMFlg1=         800
         NFxFlg=           0 DoJE=F BraDBF=F KetDBF=F FulRan=T
         wScrn=  0.000000 ICntrl=    2527 IOpCl=  0 I1Cent=           0 NGrid=           0
         NMat0=    1 NMatS0=      1 NMatT0=    0 NMatD0=    1 NMtDS0=    0 NMtDT0=    0
 Petite list used in FoFCou.
 Leave Link  703 at Thu Mar  9 14:57:42 2017, MaxMem=  1127874560 cpu:        19.9
 (Enter /share/apps/g09RelE.01/g09/l716.exe)
 Dipole        = 1.42075494D-03-1.33802539D-03 0.00000000D+00
 ***** Axes restored to original set *****
 -------------------------------------------------------------------
 Center     Atomic                   Forces (Hartrees/Bohr)
 Number     Number              X              Y              Z
 -------------------------------------------------------------------
      1        5           0.018775485    0.021982916   -0.000000000
      2        7          -0.018672588   -0.021145583    0.000000000
      3        7           0.018993390    0.020893830    0.000000000
      4        5          -0.019300665   -0.021577668   -0.000000000
      5        1          -0.000002674    0.000095207   -0.000049527
      6        1          -0.000002674    0.000095207    0.000049527
      7        1           0.000068208   -0.000002897    0.000144486
      8        1           0.000068208   -0.000002897   -0.000144486
      9        1           0.000009528   -0.000086692    0.000037614
     10        1           0.000009528   -0.000086692   -0.000037614
     11        1           0.000027127   -0.000082366    0.000048175
     12        1           0.000027127   -0.000082366   -0.000048175
 -------------------------------------------------------------------
 Cartesian Forces:  Max     0.021982916 RMS     0.009526415
 Leave Link  716 at Thu Mar  9 14:57:42 2017, MaxMem=  1127874560 cpu:         0.2
 (Enter /share/apps/g09RelE.01/g09/l103.exe)

 GradGradGradGradGradGradGradGradGradGradGradGradGradGradGradGradGradGrad
 Berny optimization.
 FormGI is forming the generalized inverse of G from B-inverse, IUseBI=4.
 Internal  Forces:  Max     0.028606719 RMS     0.004766487
 Search for a local minimum.
 Step number   1 out of a maximum of   82 on scan point     1 out of     2
 All quantities printed in internal units (Hartrees-Bohrs-Radians)
 RMS Force = .77686D-04 SwitMx=.10000D-02 MixMth= 2
 Mixed Optimization -- En-DIIS/RFO-DIIS
 Second derivative matrix not updated -- first step.
 ITU=  0
     Eigenvalues ---    0.00230   0.02293   0.02401   0.03252   0.04524
     Eigenvalues ---    0.04606   0.04641   0.04702   0.05865   0.06083
     Eigenvalues ---    0.06199   0.06478   0.06762   0.06807   0.07661
     Eigenvalues ---    0.07970   0.08867   0.21513   0.24540   0.24540
     Eigenvalues ---    0.24553   0.24553   0.25566   0.26651   0.45918
     Eigenvalues ---    0.45918   0.45918   0.459181000.000001000.00000
     Eigenvalues --- 1000.000001000.000001000.000001000.000001000.00000
     Eigenvalues --- 1000.000001000.000001000.000001000.000001000.00000
     Eigenvalues --- 1000.000001000.000001000.000001000.000001000.00000
     Eigenvalues --- 1000.000001000.000001000.000001000.000001000.00000
     Eigenvalues --- 1000.000001000.000001000.000001000.000001000.00000
     Eigenvalues --- 1000.000001000.000001000.000001000.000001000.00000
     Eigenvalues --- 1000.000001000.000001000.000001000.000001000.00000
     Eigenvalues --- 1000.000001000.000001000.000001000.000001000.00000
     Eigenvalues --- 1000.000001000.00000
 RFO step:  Lambda=-3.07365500D-06 EMin= 2.30000000D-03
 Linear search not attempted -- first point.
 Iteration  1 RMS(Cart)=  0.00054374 RMS(Int)=  0.00000063
 Iteration  2 RMS(Cart)=  0.00000048 RMS(Int)=  0.00000043
 Iteration  1 RMS(Cart)=  0.00000007 RMS(Int)=  0.00000003
 ITry= 1 IFail=0 DXMaxC= 1.84D-03 DCOld= 1.00D+10 DXMaxT= 3.00D-01 DXLimC= 3.00D+00 Rises=F
 ClnCor:  largest displacement from symmetrization is 2.44D-12 for atom    12.
 Variable       Old X    -DE/DX   Delta X   Delta X   Delta X     New X
                                 (Linear)    (Quad)   (Total)
    R1        3.40708  -0.02858   0.00000   0.00000   0.00000   3.40708
    R2        2.95298  -0.00023   0.00000  -0.00095  -0.00095   2.95204
    R3        2.27093   0.00000   0.00000   0.00002   0.00002   2.27095
    R4        2.27093   0.00000   0.00000   0.00002   0.00002   2.27095
    R5        2.95081   0.00005   0.00000   0.00025   0.00025   2.95107
    R6        1.90924  -0.00003   0.00000  -0.00006  -0.00006   1.90918
    R7        1.90924  -0.00003   0.00000  -0.00006  -0.00006   1.90918
    R8        3.40708  -0.02861   0.00000   0.00000  -0.00000   3.40708
    R9        1.90924  -0.00004   0.00000  -0.00009  -0.00009   1.90916
   R10        1.90924  -0.00004   0.00000  -0.00009  -0.00009   1.90916
   R11        2.27059   0.00011   0.00000   0.00047   0.00047   2.27105
   R12        2.27059   0.00011   0.00000   0.00047   0.00047   2.27105
    A1        1.60354   0.00024   0.00000   0.00134   0.00134   1.60488
    A2        1.88044  -0.00006   0.00000  -0.00002  -0.00002   1.88042
    A3        1.88044  -0.00006   0.00000  -0.00002  -0.00002   1.88042
    A4        1.99164  -0.00002   0.00000   0.00024   0.00024   1.99188
    A5        1.99164  -0.00002   0.00000   0.00024   0.00024   1.99188
    A6        2.05288  -0.00002   0.00000  -0.00119  -0.00119   2.05169
    A7        1.53803  -0.00025   0.00000  -0.00133  -0.00133   1.53670
    A8        1.97743   0.00005   0.00000  -0.00038  -0.00038   1.97705
    A9        1.97743   0.00005   0.00000  -0.00038  -0.00038   1.97705
   A10        2.02177   0.00010   0.00000   0.00090   0.00089   2.02267
   A11        2.02177   0.00010   0.00000   0.00090   0.00089   2.02267
   A12        1.90612  -0.00007   0.00000   0.00003   0.00003   1.90615
   A13        1.53741  -0.00017   0.00000  -0.00099  -0.00099   1.53642
   A14        2.02163   0.00008   0.00000   0.00090   0.00090   2.02253
   A15        2.02163   0.00008   0.00000   0.00090   0.00090   2.02253
   A16        1.97778   0.00002   0.00000  -0.00050  -0.00050   1.97729
   A17        1.97778   0.00002   0.00000  -0.00050  -0.00050   1.97729
   A18        1.90625  -0.00005   0.00000  -0.00004  -0.00005   1.90621
   A19        1.60420   0.00017   0.00000   0.00098   0.00098   1.60518
   A20        1.99348  -0.00008   0.00000  -0.00095  -0.00095   1.99253
   A21        1.99348  -0.00008   0.00000  -0.00095  -0.00095   1.99253
   A22        1.88045  -0.00004   0.00000   0.00026   0.00026   1.88071
   A23        1.88045  -0.00004   0.00000   0.00026   0.00026   1.88071
   A24        2.04928   0.00009   0.00000   0.00070   0.00070   2.04998
    D1        0.00000  -0.00000   0.00000   0.00000   0.00000   0.00000
    D2       -2.04956  -0.00000   0.00000  -0.00030  -0.00030  -2.04985
    D3        2.04956   0.00000   0.00000   0.00030   0.00030   2.04985
    D4        2.02599   0.00006   0.00000   0.00075   0.00075   2.02674
    D5       -0.02356   0.00005   0.00000   0.00045   0.00045  -0.02311
    D6       -2.20764   0.00006   0.00000   0.00105   0.00105  -2.20659
    D7       -2.02599  -0.00006   0.00000  -0.00075  -0.00075  -2.02674
    D8        2.20764  -0.00006   0.00000  -0.00105  -0.00105   2.20659
    D9        0.02356  -0.00005   0.00000  -0.00045  -0.00045   0.02311
   D10        0.00000   0.00000   0.00000  -0.00000   0.00000   0.00000
   D11       -2.00850   0.00005   0.00000   0.00090   0.00090  -2.00760
   D12        2.00850  -0.00005   0.00000  -0.00090  -0.00090   2.00760
   D13       -1.92697  -0.00004   0.00000  -0.00068  -0.00068  -1.92765
   D14        2.34771   0.00000   0.00000   0.00022   0.00022   2.34793
   D15        0.08154  -0.00009   0.00000  -0.00158  -0.00158   0.07995
   D16        1.92697   0.00004   0.00000   0.00068   0.00068   1.92765
   D17       -0.08154   0.00009   0.00000   0.00158   0.00158  -0.07995
   D18       -2.34771  -0.00000   0.00000  -0.00022  -0.00022  -2.34793
   D19        0.00000   0.00000   0.00000  -0.00000   0.00000   0.00000
   D20        1.92768   0.00003   0.00000   0.00057   0.00057   1.92825
   D21       -1.92768  -0.00003   0.00000  -0.00057  -0.00057  -1.92825
   D22        2.00845  -0.00005   0.00000  -0.00095  -0.00095   2.00750
   D23       -2.34705  -0.00003   0.00000  -0.00037  -0.00037  -2.34743
   D24        0.08077  -0.00008   0.00000  -0.00152  -0.00152   0.07925
   D25       -2.00845   0.00005   0.00000   0.00095   0.00095  -2.00750
   D26       -0.08077   0.00008   0.00000   0.00152   0.00152  -0.07925
   D27        2.34705   0.00003   0.00000   0.00037   0.00037   2.34743
   D28        0.00000  -0.00000   0.00000   0.00000   0.00000   0.00000
   D29       -2.02821   0.00003   0.00000   0.00060   0.00060  -2.02761
   D30        2.02821  -0.00003   0.00000  -0.00060  -0.00060   2.02761
   D31        2.04917   0.00002   0.00000   0.00044   0.00044   2.04962
   D32        0.02097   0.00005   0.00000   0.00104   0.00104   0.02201
   D33       -2.20581  -0.00002   0.00000  -0.00016  -0.00016  -2.20596
   D34       -2.04917  -0.00002   0.00000  -0.00044  -0.00044  -2.04962
   D35        2.20581   0.00002   0.00000   0.00016   0.00016   2.20596
   D36       -0.02097  -0.00005   0.00000  -0.00104  -0.00104  -0.02201
         Item               Value     Threshold  Converged?
 Maximum Force            0.000251     0.002500     YES
 RMS     Force            0.000078     0.001667     YES
 Maximum Displacement     0.001836     0.010000     YES
 RMS     Displacement     0.000544     0.006667     YES
 Predicted change in Energy=-1.537664D-06
 Optimization completed.
    -- Stationary point found.
                           ----------------------------
                           !   Optimized Parameters   !
                           ! (Angstroms and Degrees)  !
 --------------------------                            --------------------------
 ! Name  Definition              Value          Derivative Info.                !
 --------------------------------------------------------------------------------
 ! R1    R(1,2)                  1.803          -DE/DX =   -0.0286              !
 ! R2    R(1,3)                  1.5627         -DE/DX =   -0.0002              !
 ! R3    R(1,11)                 1.2017         -DE/DX =    0.0                 !
 ! R4    R(1,12)                 1.2017         -DE/DX =    0.0                 !
 ! R5    R(2,4)                  1.5615         -DE/DX =    0.0                 !
 ! R6    R(2,9)                  1.0103         -DE/DX =    0.0                 !
 ! R7    R(2,10)                 1.0103         -DE/DX =    0.0                 !
 ! R8    R(3,4)                  1.803          -DE/DX =   -0.0286              !
 ! R9    R(3,5)                  1.0103         -DE/DX =    0.0                 !
 ! R10   R(3,6)                  1.0103         -DE/DX =    0.0                 !
 ! R11   R(4,7)                  1.2015         -DE/DX =    0.0001              !
 ! R12   R(4,8)                  1.2015         -DE/DX =    0.0001              !
 ! A1    A(2,1,3)               91.8762         -DE/DX =    0.0002              !
 ! A2    A(2,1,11)             107.7412         -DE/DX =   -0.0001              !
 ! A3    A(2,1,12)             107.7412         -DE/DX =   -0.0001              !
 ! A4    A(3,1,11)             114.1124         -DE/DX =    0.0                 !
 ! A5    A(3,1,12)             114.1124         -DE/DX =    0.0                 !
 ! A6    A(11,1,12)            117.6213         -DE/DX =    0.0                 !
 ! A7    A(1,2,4)               88.1224         -DE/DX =   -0.0002              !
 ! A8    A(1,2,9)              113.2985         -DE/DX =    0.0001              !
 ! A9    A(1,2,10)             113.2985         -DE/DX =    0.0001              !
 ! A10   A(4,2,9)              115.8391         -DE/DX =    0.0001              !
 ! A11   A(4,2,10)             115.8391         -DE/DX =    0.0001              !
 ! A12   A(9,2,10)             109.2128         -DE/DX =   -0.0001              !
 ! A13   A(1,3,4)               88.0872         -DE/DX =   -0.0002              !
 ! A14   A(1,3,5)              115.8308         -DE/DX =    0.0001              !
 ! A15   A(1,3,6)              115.8308         -DE/DX =    0.0001              !
 ! A16   A(4,3,5)              113.3187         -DE/DX =    0.0                 !
 ! A17   A(4,3,6)              113.3187         -DE/DX =    0.0                 !
 ! A18   A(5,3,6)              109.2202         -DE/DX =   -0.0001              !
 ! A19   A(2,4,3)               91.9141         -DE/DX =    0.0002              !
 ! A20   A(2,4,7)              114.2179         -DE/DX =   -0.0001              !
 ! A21   A(2,4,8)              114.2179         -DE/DX =   -0.0001              !
 ! A22   A(3,4,7)              107.7419         -DE/DX =    0.0                 !
 ! A23   A(3,4,8)              107.7419         -DE/DX =    0.0                 !
 ! A24   A(7,4,8)              117.4152         -DE/DX =    0.0001              !
 ! D1    D(3,1,2,4)              0.0            -DE/DX =    0.0                 !
 ! D2    D(3,1,2,9)           -117.4309         -DE/DX =    0.0                 !
 ! D3    D(3,1,2,10)           117.4309         -DE/DX =    0.0                 !
 ! D4    D(11,1,2,4)           116.0808         -DE/DX =    0.0001              !
 ! D5    D(11,1,2,9)            -1.3501         -DE/DX =    0.0001              !
 ! D6    D(11,1,2,10)         -126.4884         -DE/DX =    0.0001              !
 ! D7    D(12,1,2,4)          -116.0808         -DE/DX =   -0.0001              !
 ! D8    D(12,1,2,9)           126.4884         -DE/DX =   -0.0001              !
 ! D9    D(12,1,2,10)            1.3501         -DE/DX =   -0.0001              !
 ! D10   D(2,1,3,4)              0.0            -DE/DX =    0.0                 !
 ! D11   D(2,1,3,5)           -115.0788         -DE/DX =    0.0                 !
 ! D12   D(2,1,3,6)            115.0788         -DE/DX =    0.0                 !
 ! D13   D(11,1,3,4)          -110.4071         -DE/DX =    0.0                 !
 ! D14   D(11,1,3,5)           134.5141         -DE/DX =    0.0                 !
 ! D15   D(11,1,3,6)             4.6717         -DE/DX =   -0.0001              !
 ! D16   D(12,1,3,4)           110.4071         -DE/DX =    0.0                 !
 ! D17   D(12,1,3,5)            -4.6717         -DE/DX =    0.0001              !
 ! D18   D(12,1,3,6)          -134.5141         -DE/DX =    0.0                 !
 ! D19   D(1,2,4,3)              0.0            -DE/DX =    0.0                 !
 ! D20   D(1,2,4,7)            110.4479         -DE/DX =    0.0                 !
 ! D21   D(1,2,4,8)           -110.4479         -DE/DX =    0.0                 !
 ! D22   D(9,2,4,3)            115.0759         -DE/DX =   -0.0001              !
 ! D23   D(9,2,4,7)           -134.4763         -DE/DX =    0.0                 !
 ! D24   D(9,2,4,8)              4.628          -DE/DX =   -0.0001              !
 ! D25   D(10,2,4,3)          -115.0759         -DE/DX =    0.0001              !
 ! D26   D(10,2,4,7)            -4.628          -DE/DX =    0.0001              !
 ! D27   D(10,2,4,8)           134.4763         -DE/DX =    0.0                 !
 ! D28   D(1,3,4,2)              0.0            -DE/DX =    0.0                 !
 ! D29   D(1,3,4,7)           -116.2076         -DE/DX =    0.0                 !
 ! D30   D(1,3,4,8)            116.2076         -DE/DX =    0.0                 !
 ! D31   D(5,3,4,2)            117.409          -DE/DX =    0.0                 !
 ! D32   D(5,3,4,7)              1.2014         -DE/DX =    0.0                 !
 ! D33   D(5,3,4,8)           -126.3833         -DE/DX =    0.0                 !
 ! D34   D(6,3,4,2)           -117.409          -DE/DX =    0.0                 !
 ! D35   D(6,3,4,7)            126.3833         -DE/DX =    0.0                 !
 ! D36   D(6,3,4,8)             -1.2014         -DE/DX =    0.0                 !
 --------------------------------------------------------------------------------
 Lowest energy point so far.  Saving SCF results.
 Iteration  1 RMS(Cart)=  0.02676726 RMS(Int)=  0.00793648
 Iteration  2 RMS(Cart)=  0.00008656 RMS(Int)=  0.00793626
 Iteration  3 RMS(Cart)=  0.00000043 RMS(Int)=  0.00793626
 Iteration  1 RMS(Cart)=  0.00471553 RMS(Int)=  0.00201578
 Iteration  2 RMS(Cart)=  0.00119778 RMS(Int)=  0.00219850
 Iteration  3 RMS(Cart)=  0.00030427 RMS(Int)=  0.00229658
 Iteration  4 RMS(Cart)=  0.00007729 RMS(Int)=  0.00232424
 Iteration  5 RMS(Cart)=  0.00001963 RMS(Int)=  0.00233143
 Iteration  6 RMS(Cart)=  0.00000499 RMS(Int)=  0.00233327
 Iteration  7 RMS(Cart)=  0.00000127 RMS(Int)=  0.00233374
 Iteration  8 RMS(Cart)=  0.00000032 RMS(Int)=  0.00233386
 GradGradGradGradGradGradGradGradGradGradGradGradGradGradGradGradGradGrad

 Leave Link  103 at Thu Mar  9 14:57:43 2017, MaxMem=  1127874560 cpu:         0.2
 (Enter /share/apps/g09RelE.01/g09/l202.exe)
                          Input orientation:                          
 ---------------------------------------------------------------------
 Center     Atomic      Atomic             Coordinates (Angstroms)
 Number     Number       Type             X           Y           Z
 ---------------------------------------------------------------------
      1          5           0       -0.029315   -1.211775   -0.000000
      2          7           0        1.235334    0.210155    0.000000
      3          7           0       -1.198009   -0.175045   -0.000000
      4          5           0        0.002553    1.170051    0.000000
      5          1           0       -1.780410   -0.178571    0.825513
      6          1           0       -1.780410   -0.178571   -0.825513
      7          1           0       -0.141015    1.774200    1.028929
      8          1           0       -0.141015    1.774200   -1.028929
      9          1           0        1.822730    0.234043   -0.821641
     10          1           0        1.822730    0.234043    0.821641
     11          1           0        0.092809   -1.825638   -1.025879
     12          1           0        0.092809   -1.825638    1.025879
 ---------------------------------------------------------------------
                    Distance matrix (angstroms):
                    1          2          3          4          5
     1  B    0.000000
     2  N    1.902951   0.000000
     3  N    1.562259   2.463643   0.000000
     4  B    2.382039   1.562418   1.802951   0.000000
     5  H    2.194382   3.150761   1.010284   2.383110   0.000000
     6  H    2.194382   3.150761   1.010284   2.383110   1.651025
     7  H    3.160256   2.323632   2.444482   1.201791   2.557795
     8  H    3.160256   2.323632   2.444482   1.201791   3.152759
     9  H    2.489087   1.010297   3.157105   2.205505   3.983213
    10  H    2.489087   1.010297   3.157105   2.205505   3.626690
    11  H    1.201736   2.549950   2.333044   3.167764   3.106353
    12  H    1.201736   2.549950   2.333044   3.167764   2.502384
                    6          7          8          9         10
     6  H    0.000000
     7  H    3.152759   0.000000
     8  H    2.557795   2.057858   0.000000
     9  H    3.626690   3.106926   2.504265   0.000000
    10  H    3.983213   2.504265   3.106926   1.643283   0.000000
    11  H    2.502384   4.151595   3.607425   2.697522   3.263165
    12  H    3.106353   3.607425   4.151595   3.263165   2.697522
                   11         12
    11  H    0.000000
    12  H    2.051757   0.000000
 Stoichiometry    B2H8N2
 Framework group  CS[SG(B2N2),X(H8)]
 Deg. of freedom    17
 Full point group                 CS      NOp   2
 RotChk:  IX=0 Diff= 1.29D-03
 Largest Abelian subgroup         CS      NOp   2
 Largest concise Abelian subgroup CS      NOp   2
                         Standard orientation:                         
 ---------------------------------------------------------------------
 Center     Atomic      Atomic             Coordinates (Angstroms)
 Number     Number       Type             X           Y           Z
 ---------------------------------------------------------------------
      1          5           0       -0.034034   -1.213157    0.000000
      2          7           0        1.231908    0.207622    0.000000
      3          7           0       -1.201784   -0.175366    0.000000
      4          5           0        0.000000    1.168639    0.000000
      5          1           0       -1.784188   -0.178362    0.825513
      6          1           0       -1.784188   -0.178362   -0.825513
      7          1           0       -0.143018    1.772918    1.028929
      8          1           0       -0.143018    1.772918   -1.028929
      9          1           0        1.819325    0.230976   -0.821641
     10          1           0        1.819325    0.230976    0.821641
     11          1           0        0.087532   -1.827132   -1.025879
     12          1           0        0.087532   -1.827132    1.025879
 ---------------------------------------------------------------------
 Rotational constants (GHZ):     10.4936628      7.6617720      5.0466126
 Leave Link  202 at Thu Mar  9 14:57:43 2017, MaxMem=  1127874560 cpu:         0.0
 (Enter /share/apps/g09RelE.01/g09/l301.exe)
 Standard basis: 6-311G(d,p) (5D, 7F)
 Ernie: Thresh=  0.10000D-02 Tol=  0.10000D-05 Strict=F.
 There are    80 symmetry adapted cartesian basis functions of A'  symmetry.
 There are    44 symmetry adapted cartesian basis functions of A"  symmetry.
 There are    76 symmetry adapted basis functions of A'  symmetry.
 There are    44 symmetry adapted basis functions of A"  symmetry.
   120 basis functions,   192 primitive gaussians,   124 cartesian basis functions
    16 alpha electrons       16 beta electrons
       nuclear repulsion energy       118.0232720759 Hartrees.
 IExCor= 4639 DFT=T Ex+Corr=wB97XD ExCW=0 ScaHFX=  1.000000
 ScaDFX=  1.000000  1.000000  1.000000  1.000000 ScalE2=  1.000000  1.000000
 IRadAn=      5 IRanWt=     -1 IRanGd=            0 ICorTp=0 IEmpDi=121
  HFx wShort=  0.000000 wLong=  0.200000 cFull=  0.222036 cShort=  0.000000 cLong=  0.777964
  DFx wShort=  0.000000 wLong=  0.200000 cFull=  0.000000 cShort=  0.000000 cLong=  1.000000
 NAtoms=   12 NActive=   12 NUniq=    8 SFac= 2.25D+00 NAtFMM=   60 NAOKFM=F Big=F
 Integral buffers will be    131072 words long.
 Raffenetti 2 integral format.
 Two-electron integral symmetry is turned on.
 R6Disp:  Grimme-D2 Dispersion energy=       -0.0053939929 Hartrees.
 Nuclear repulsion after empirical dispersion term =      118.0178780830 Hartrees.
 Leave Link  301 at Thu Mar  9 14:57:43 2017, MaxMem=  1127874560 cpu:         0.3
 (Enter /share/apps/g09RelE.01/g09/l302.exe)
 NPDir=0 NMtPBC=     1 NCelOv=     1 NCel=       1 NClECP=     1 NCelD=      1
         NCelK=      1 NCelE2=     1 NClLst=     1 CellRange=     0.0.
 One-electron integrals computed using PRISM.
 One-electron integral symmetry used in STVInt
 NBasis=   120 RedAO= T EigKep=  5.32D-03  NBF=    76    44
 NBsUse=   120 1.00D-06 EigRej= -1.00D+00 NBFU=    76    44
 Precomputing XC quadrature grid using
 IXCGrd= 4 IRadAn=           5 IRanWt=          -1 IRanGd=           0 AccXCQ= 0.00D+00.
 Generated NRdTot=       0 NPtTot=           0 NUsed=           0 NTot=          32
 NSgBfM=   124   124   124   124   124 MxSgAt=    12 MxSgA2=    12.
 Leave Link  302 at Thu Mar  9 14:57:43 2017, MaxMem=  1127874560 cpu:         1.3
 (Enter /share/apps/g09RelE.01/g09/l303.exe)
 DipDrv:  MaxL=1.
 Leave Link  303 at Thu Mar  9 14:57:43 2017, MaxMem=  1127874560 cpu:         0.2
 (Enter /share/apps/g09RelE.01/g09/l401.exe)
 Initial guess from the checkpoint file:  "AB-AB-NHscan.chk"
 B after Tr=    -0.000000    0.000000    0.000000
         Rot=    1.000000   -0.000000    0.000000   -0.000312 Ang=  -0.04 deg.
 Guess basis will be translated and rotated to current coordinates.
 JPrj=2 DoOrth=T DoCkMO=T.
 Initial guess orbital symmetries:
       Occupied  (A') (A') (A') (A') (A') (A') (A') (A") (A') (A")
                 (A') (A') (A') (A") (A") (A')
       Virtual   (A') (A') (A') (A') (A') (A') (A') (A') (A') (A')
                 (A') (A') (A') (A') (A') (A') (A') (A') (A') (A')
                 (A') (A') (A') (A') (A') (A') (A') (A') (A') (A')
                 (A') (A') (A') (A') (A') (A') (A') (A') (A') (A')
                 (A') (A') (A') (A') (A') (A') (A') (A') (A') (A')
                 (A') (A') (A') (A') (A') (A') (A') (A') (A') (A')
                 (A') (A') (A') (A') (A") (A") (A") (A") (A") (A")
                 (A") (A") (A") (A") (A") (A") (A") (A") (A") (A")
                 (A") (A") (A") (A") (A") (A") (A") (A") (A") (A")
                 (A") (A") (A") (A") (A") (A") (A") (A") (A") (A")
                 (A") (A") (A") (A")
 The electronic state of the initial guess is 1-A'.
 Generating alternative initial guess.
 ExpMin= 9.89D-02 ExpMax= 6.29D+03 ExpMxC= 9.49D+02 IAcc=2 IRadAn=         4 AccDes= 0.00D+00
 Harris functional with IExCor= 4639 and IRadAn=       4 diagonalized for initial guess.
 HarFok:  IExCor= 4639 AccDes= 0.00D+00 IRadAn=         4 IDoV= 1 UseB2=F ITyADJ=14
 ICtDFT=  3500011 ScaDFX=  1.000000  1.000000  1.000000  1.000000
 FoFCou: FMM=F IPFlag=           0 FMFlag=      100000 FMFlg1=           0
         NFxFlg=           0 DoJE=T BraDBF=F KetDBF=T FulRan=T
         wScrn=  0.000000 ICntrl=     500 IOpCl=  0 I1Cent=   200000004 NGrid=           0
         NMat0=    1 NMatS0=      1 NMatT0=    0 NMatD0=    1 NMtDS0=    0 NMtDT0=    0
 Petite list used in FoFCou.
 Harris En= -156.215334545211    
 Leave Link  401 at Thu Mar  9 14:57:44 2017, MaxMem=  1127874560 cpu:         2.9
 (Enter /share/apps/g09RelE.01/g09/l502.exe)
 Closed shell SCF:
 Using DIIS extrapolation, IDIIS=  1040.
 Integral symmetry usage will be decided dynamically.
 Keep R1 ints in memory in symmetry-blocked form, NReq=79321962.
 IVT=       66538 IEndB=       66538 NGot=  1127874560 MDV=  1114529905
 LenX=  1114529905 LenY=  1114514088
 Requested convergence on RMS density matrix=1.00D-08 within 128 cycles.
 Requested convergence on MAX density matrix=1.00D-06.
 Requested convergence on             energy=1.00D-06.
 No special actions if energy rises.
 FoFCou: FMM=F IPFlag=           0 FMFlag=           0 FMFlg1=           0
         NFxFlg=           0 DoJE=F BraDBF=F KetDBF=F FulRan=T
         wScrn=  0.000000 ICntrl=     600 IOpCl=  0 I1Cent=           0 NGrid=           0
         NMat0=    1 NMatS0=   7260 NMatT0=    0 NMatD0=    1 NMtDS0=    0 NMtDT0=    0
 Petite list used in FoFCou.
 Integral accuracy reduced to 1.0D-05 until final iterations.

 Cycle   1  Pass 0  IDiag  1:
 E= -164.084907236373    
 DIIS: error= 2.37D-03 at cycle   1 NSaved=   1.
 NSaved= 1 IEnMin= 1 EnMin= -164.084907236373     IErMin= 1 ErrMin= 2.37D-03
 ErrMax= 2.37D-03  0.00D+00 EMaxC= 1.00D-01 BMatC= 8.36D-04 BMatP= 8.36D-04
 IDIUse=3 WtCom= 9.76D-01 WtEn= 2.37D-02
 Coeff-Com:  0.100D+01
 Coeff-En:   0.100D+01
 Coeff:      0.100D+01
 Gap=     0.823 Goal=   None    Shift=    0.000
 GapD=    0.823 DampG=2.000 DampE=1.000 DampFc=2.0000 IDamp=-1.
 RMSDP=2.85D-04 MaxDP=6.03D-03              OVMax= 1.27D-02

 Cycle   2  Pass 0  IDiag  1:
 E= -164.086275149326     Delta-E=       -0.001367912954 Rises=F Damp=F
 DIIS: error= 6.69D-04 at cycle   2 NSaved=   2.
 NSaved= 2 IEnMin= 2 EnMin= -164.086275149326     IErMin= 2 ErrMin= 6.69D-04
 ErrMax= 6.69D-04  0.00D+00 EMaxC= 1.00D-01 BMatC= 5.67D-05 BMatP= 8.36D-04
 IDIUse=3 WtCom= 9.93D-01 WtEn= 6.69D-03
 Coeff-Com: -0.603D-01 0.106D+01
 Coeff-En:   0.000D+00 0.100D+01
 Coeff:     -0.599D-01 0.106D+01
 Gap=     0.457 Goal=   None    Shift=    0.000
 RMSDP=8.53D-05 MaxDP=1.83D-03 DE=-1.37D-03 OVMax= 4.08D-03

 Cycle   3  Pass 0  IDiag  1:
 E= -164.086368424952     Delta-E=       -0.000093275626 Rises=F Damp=F
 DIIS: error= 4.65D-04 at cycle   3 NSaved=   3.
 NSaved= 3 IEnMin= 3 EnMin= -164.086368424952     IErMin= 3 ErrMin= 4.65D-04
 ErrMax= 4.65D-04  0.00D+00 EMaxC= 1.00D-01 BMatC= 2.53D-05 BMatP= 5.67D-05
 IDIUse=3 WtCom= 9.95D-01 WtEn= 4.65D-03
 Coeff-Com: -0.844D-01 0.425D+00 0.660D+00
 Coeff-En:   0.000D+00 0.000D+00 0.100D+01
 Coeff:     -0.840D-01 0.423D+00 0.661D+00
 Gap=     0.457 Goal=   None    Shift=    0.000
 RMSDP=3.23D-05 MaxDP=9.79D-04 DE=-9.33D-05 OVMax= 1.78D-03

 Cycle   4  Pass 0  IDiag  1:
 E= -164.086391792492     Delta-E=       -0.000023367540 Rises=F Damp=F
 DIIS: error= 1.51D-04 at cycle   4 NSaved=   4.
 NSaved= 4 IEnMin= 4 EnMin= -164.086391792492     IErMin= 4 ErrMin= 1.51D-04
 ErrMax= 1.51D-04  0.00D+00 EMaxC= 1.00D-01 BMatC= 1.94D-06 BMatP= 2.53D-05
 IDIUse=3 WtCom= 9.98D-01 WtEn= 1.51D-03
 Coeff-Com: -0.162D-01 0.800D-02 0.203D+00 0.805D+00
 Coeff-En:   0.000D+00 0.000D+00 0.000D+00 0.100D+01
 Coeff:     -0.162D-01 0.798D-02 0.203D+00 0.805D+00
 Gap=     0.457 Goal=   None    Shift=    0.000
 RMSDP=1.26D-05 MaxDP=2.55D-04 DE=-2.34D-05 OVMax= 7.69D-04

 Cycle   5  Pass 0  IDiag  1:
 E= -164.086394279593     Delta-E=       -0.000002487101 Rises=F Damp=F
 DIIS: error= 4.75D-05 at cycle   5 NSaved=   5.
 NSaved= 5 IEnMin= 5 EnMin= -164.086394279593     IErMin= 5 ErrMin= 4.75D-05
 ErrMax= 4.75D-05  0.00D+00 EMaxC= 1.00D-01 BMatC= 1.86D-07 BMatP= 1.94D-06
 IDIUse=1 WtCom= 1.00D+00 WtEn= 0.00D+00
 Coeff-Com:  0.544D-02-0.504D-01-0.297D-01 0.220D+00 0.854D+00
 Coeff:      0.544D-02-0.504D-01-0.297D-01 0.220D+00 0.854D+00
 Gap=     0.457 Goal=   None    Shift=    0.000
 RMSDP=5.27D-06 MaxDP=1.02D-04 DE=-2.49D-06 OVMax= 3.15D-04

 Initial convergence to 1.0D-05 achieved.  Increase integral accuracy.
 Cycle   6  Pass 1  IDiag  1:
 E= -164.086398750609     Delta-E=       -0.000004471017 Rises=F Damp=F
 DIIS: error= 4.00D-05 at cycle   1 NSaved=   1.
 NSaved= 1 IEnMin= 1 EnMin= -164.086398750609     IErMin= 1 ErrMin= 4.00D-05
 ErrMax= 4.00D-05  0.00D+00 EMaxC= 1.00D-01 BMatC= 2.12D-07 BMatP= 2.12D-07
 IDIUse=1 WtCom= 1.00D+00 WtEn= 0.00D+00
 Coeff-Com:  0.100D+01
 Coeff:      0.100D+01
 Gap=     0.457 Goal=   None    Shift=    0.000
 RMSDP=5.27D-06 MaxDP=1.02D-04 DE=-4.47D-06 OVMax= 1.35D-04

 Cycle   7  Pass 1  IDiag  1:
 E= -164.086398955570     Delta-E=       -0.000000204960 Rises=F Damp=F
 DIIS: error= 1.15D-05 at cycle   2 NSaved=   2.
 NSaved= 2 IEnMin= 2 EnMin= -164.086398955570     IErMin= 2 ErrMin= 1.15D-05
 ErrMax= 1.15D-05  0.00D+00 EMaxC= 1.00D-01 BMatC= 1.02D-08 BMatP= 2.12D-07
 IDIUse=1 WtCom= 1.00D+00 WtEn= 0.00D+00
 Coeff-Com:  0.797D-03 0.999D+00
 Coeff:      0.797D-03 0.999D+00
 Gap=     0.457 Goal=   None    Shift=    0.000
 RMSDP=1.31D-06 MaxDP=2.55D-05 DE=-2.05D-07 OVMax= 4.24D-05

 Cycle   8  Pass 1  IDiag  1:
 E= -164.086398964784     Delta-E=       -0.000000009214 Rises=F Damp=F
 DIIS: error= 8.36D-06 at cycle   3 NSaved=   3.
 NSaved= 3 IEnMin= 3 EnMin= -164.086398964784     IErMin= 3 ErrMin= 8.36D-06
 ErrMax= 8.36D-06  0.00D+00 EMaxC= 1.00D-01 BMatC= 4.24D-09 BMatP= 1.02D-08
 IDIUse=1 WtCom= 1.00D+00 WtEn= 0.00D+00
 Coeff-Com: -0.476D-01 0.387D+00 0.661D+00
 Coeff:     -0.476D-01 0.387D+00 0.661D+00
 Gap=     0.457 Goal=   None    Shift=    0.000
 RMSDP=3.59D-07 MaxDP=9.68D-06 DE=-9.21D-09 OVMax= 1.42D-05

 Cycle   9  Pass 1  IDiag  1:
 E= -164.086398968684     Delta-E=       -0.000000003901 Rises=F Damp=F
 DIIS: error= 1.39D-06 at cycle   4 NSaved=   4.
 NSaved= 4 IEnMin= 4 EnMin= -164.086398968684     IErMin= 4 ErrMin= 1.39D-06
 ErrMax= 1.39D-06  0.00D+00 EMaxC= 1.00D-01 BMatC= 2.27D-10 BMatP= 4.24D-09
 IDIUse=1 WtCom= 1.00D+00 WtEn= 0.00D+00
 Coeff-Com: -0.173D-01 0.745D-01 0.221D+00 0.721D+00
 Coeff:     -0.173D-01 0.745D-01 0.221D+00 0.721D+00
 Gap=     0.457 Goal=   None    Shift=    0.000
 RMSDP=1.15D-07 MaxDP=3.35D-06 DE=-3.90D-09 OVMax= 5.18D-06

 Cycle  10  Pass 1  IDiag  1:
 E= -164.086398968886     Delta-E=       -0.000000000202 Rises=F Damp=F
 DIIS: error= 6.42D-07 at cycle   5 NSaved=   5.
 NSaved= 5 IEnMin= 5 EnMin= -164.086398968886     IErMin= 5 ErrMin= 6.42D-07
 ErrMax= 6.42D-07  0.00D+00 EMaxC= 1.00D-01 BMatC= 2.14D-11 BMatP= 2.27D-10
 IDIUse=1 WtCom= 1.00D+00 WtEn= 0.00D+00
 Coeff-Com:  0.144D-02-0.288D-01-0.205D-01 0.204D+00 0.844D+00
 Coeff:      0.144D-02-0.288D-01-0.205D-01 0.204D+00 0.844D+00
 Gap=     0.457 Goal=   None    Shift=    0.000
 RMSDP=4.51D-08 MaxDP=7.13D-07 DE=-2.02D-10 OVMax= 2.08D-06

 Cycle  11  Pass 1  IDiag  1:
 E= -164.086398968915     Delta-E=       -0.000000000029 Rises=F Damp=F
 DIIS: error= 8.40D-08 at cycle   6 NSaved=   6.
 NSaved= 6 IEnMin= 6 EnMin= -164.086398968915     IErMin= 6 ErrMin= 8.40D-08
 ErrMax= 8.40D-08  0.00D+00 EMaxC= 1.00D-01 BMatC= 6.38D-13 BMatP= 2.14D-11
 IDIUse=1 WtCom= 1.00D+00 WtEn= 0.00D+00
 Coeff-Com:  0.917D-03-0.565D-02-0.126D-01-0.381D-01 0.464D-01 0.101D+01
 Coeff:      0.917D-03-0.565D-02-0.126D-01-0.381D-01 0.464D-01 0.101D+01
 Gap=     0.457 Goal=   None    Shift=    0.000
 RMSDP=1.49D-08 MaxDP=2.24D-07 DE=-2.91D-11 OVMax= 8.85D-07

 Cycle  12  Pass 1  IDiag  1:
 E= -164.086398968916     Delta-E=       -0.000000000001 Rises=F Damp=F
 DIIS: error= 3.98D-08 at cycle   7 NSaved=   7.
 NSaved= 7 IEnMin= 7 EnMin= -164.086398968916     IErMin= 7 ErrMin= 3.98D-08
 ErrMax= 3.98D-08  0.00D+00 EMaxC= 1.00D-01 BMatC= 1.90D-13 BMatP= 6.38D-13
 IDIUse=1 WtCom= 1.00D+00 WtEn= 0.00D+00
 Coeff-Com:  0.348D-03-0.110D-02-0.466D-02-0.256D-01-0.264D-01 0.437D+00
 Coeff-Com:  0.620D+00
 Coeff:      0.348D-03-0.110D-02-0.466D-02-0.256D-01-0.264D-01 0.437D+00
 Coeff:      0.620D+00
 Gap=     0.457 Goal=   None    Shift=    0.000
 RMSDP=3.14D-09 MaxDP=8.54D-08 DE=-1.31D-12 OVMax= 1.99D-07

 SCF Done:  E(RwB97XD) =  -164.086398969     A.U. after   12 cycles
            NFock= 12  Conv=0.31D-08     -V/T= 2.0061
 KE= 1.630910527118D+02 PE=-6.169454456146D+02 EE= 1.717501158509D+02
 Leave Link  502 at Thu Mar  9 14:58:00 2017, MaxMem=  1127874560 cpu:        62.8
 (Enter /share/apps/g09RelE.01/g09/l701.exe)
 Compute integral first derivatives.
 ... and contract with generalized density number  0.
 R6Disp: Adding Grimme-D2 dispersion energy 1st derivatives to the gradient.
 Leave Link  701 at Thu Mar  9 14:58:00 2017, MaxMem=  1127874560 cpu:         0.9
 (Enter /share/apps/g09RelE.01/g09/l702.exe)
 L702 exits ... SP integral derivatives will be done elsewhere.
 Leave Link  702 at Thu Mar  9 14:58:00 2017, MaxMem=  1127874560 cpu:         0.1
 (Enter /share/apps/g09RelE.01/g09/l703.exe)
 Compute integral first derivatives, UseDBF=F ICtDFT=           0.
 Integral derivatives from FoFJK, PRISM(SPDF).
 Calling FoFJK, ICntrl=      2127 FMM=F ISym2X=1 I1Cent= 0 IOpClX= 0 NMat=1 NMatS=1 NMatT=0.
 FoFJK:  IHMeth= 1 ICntrl=    2127 DoSepK=T KAlg= 0 I1Cent=   0 FoldK=F
 IRaf=         1 NMat=   1 IRICut=       1 DoRegI=T DoRafI=F ISym2E= 1.
 FoFCou: FMM=F IPFlag=           0 FMFlag=      100000 FMFlg1=         800
         NFxFlg=           0 DoJE=F BraDBF=F KetDBF=F FulRan=T
         wScrn=  0.000000 ICntrl=    2527 IOpCl=  0 I1Cent=           0 NGrid=           0
         NMat0=    1 NMatS0=      1 NMatT0=    0 NMatD0=    1 NMtDS0=    0 NMtDT0=    0
 Petite list used in FoFCou.
 Leave Link  703 at Thu Mar  9 14:58:05 2017, MaxMem=  1127874560 cpu:        19.0
 (Enter /share/apps/g09RelE.01/g09/l716.exe)
 Dipole        =-5.75945521D-02-6.29749239D-02 0.00000000D+00
 ***** Axes restored to original set *****
 -------------------------------------------------------------------
 Center     Atomic                   Forces (Hartrees/Bohr)
 Number     Number              X              Y              Z
 -------------------------------------------------------------------
      1        5           0.015655508    0.024028022    0.000000000
      2        7          -0.023155021   -0.024570569   -0.000000000
      3        7           0.022211793    0.017351601   -0.000000000
      4        5          -0.014434545   -0.022003998   -0.000000000
      5        1          -0.000439803    0.000163846   -0.000242598
      6        1          -0.000439803    0.000163846    0.000242598
      7        1          -0.000499396    0.000428925    0.000014015
      8        1          -0.000499396    0.000428925   -0.000014015
      9        1          -0.001087556   -0.000407549   -0.000598402
     10        1          -0.001087556   -0.000407549    0.000598402
     11        1           0.001887888    0.002412251    0.000052843
     12        1           0.001887888    0.002412251   -0.000052843
 -------------------------------------------------------------------
 Cartesian Forces:  Max     0.024570569 RMS     0.009821877
 Leave Link  716 at Thu Mar  9 14:58:05 2017, MaxMem=  1127874560 cpu:         0.2
 (Enter /share/apps/g09RelE.01/g09/l103.exe)

 GradGradGradGradGradGradGradGradGradGradGradGradGradGradGradGradGradGrad
 Berny optimization.
 FormGI is forming the generalized inverse of G from B-inverse, IUseBI=4.
 Internal  Forces:  Max     0.034597373 RMS     0.005264463
 Search for a local minimum.
 Step number   1 out of a maximum of   82 on scan point     2 out of     2
 All quantities printed in internal units (Hartrees-Bohrs-Radians)
 RMS Force = .81104D-03 SwitMx=.10000D-02 MixMth= 1
 Mixed Optimization -- RFO/linear search
 Second derivative matrix not updated -- first step.
 ITU=  0
     Eigenvalues ---    0.00230   0.02288   0.02395   0.03245   0.04378
     Eigenvalues ---    0.04480   0.04758   0.04840   0.05876   0.06089
     Eigenvalues ---    0.06185   0.06493   0.06726   0.06859   0.07677
     Eigenvalues ---    0.07939   0.08922   0.21514   0.24540   0.24540
     Eigenvalues ---    0.24553   0.24553   0.25612   0.26649   0.45918
     Eigenvalues ---    0.45918   0.45918   0.459181000.000001000.00000
     Eigenvalues --- 1000.000001000.000001000.000001000.000001000.00000
     Eigenvalues --- 1000.000001000.000001000.000001000.000001000.00000
     Eigenvalues --- 1000.000001000.000001000.000001000.000001000.00000
     Eigenvalues --- 1000.000001000.000001000.000001000.000001000.00000
     Eigenvalues --- 1000.000001000.000001000.000001000.000001000.00000
     Eigenvalues --- 1000.000001000.000001000.000001000.000001000.00000
     Eigenvalues --- 1000.000001000.000001000.000001000.000001000.00000
     Eigenvalues --- 1000.000001000.000001000.000001000.000001000.00000
     Eigenvalues --- 1000.000001000.00000
 RFO step:  Lambda=-5.02855718D-04 EMin= 2.30000000D-03
 Linear search not attempted -- first point.
 Iteration  1 RMS(Cart)=  0.00938461 RMS(Int)=  0.00021019
 Iteration  2 RMS(Cart)=  0.00014941 RMS(Int)=  0.00015423
 Iteration  3 RMS(Cart)=  0.00000001 RMS(Int)=  0.00015423
 Iteration  1 RMS(Cart)=  0.00000755 RMS(Int)=  0.00000323
 Iteration  2 RMS(Cart)=  0.00000193 RMS(Int)=  0.00000352
 Iteration  3 RMS(Cart)=  0.00000049 RMS(Int)=  0.00000368
 ITry= 1 IFail=0 DXMaxC= 3.34D-02 DCOld= 1.00D+10 DXMaxT= 3.00D-01 DXLimC= 3.00D+00 Rises=F
 ClnCor:  largest displacement from symmetrization is 1.18D-11 for atom     6.
 Variable       Old X    -DE/DX   Delta X   Delta X   Delta X     New X
                                 (Linear)    (Quad)   (Total)
    R1        3.59606  -0.03460   0.00000   0.00000  -0.00000   3.59606
    R2        2.95224  -0.00404   0.00000  -0.01471  -0.01474   2.93750
    R3        2.27095  -0.00109   0.00000  -0.00441  -0.00441   2.26654
    R4        2.27095  -0.00109   0.00000  -0.00441  -0.00441   2.26654
    R5        2.95254  -0.00274   0.00000  -0.01057  -0.01053   2.94201
    R6        1.90918  -0.00016   0.00000  -0.00034  -0.00034   1.90885
    R7        1.90918  -0.00016   0.00000  -0.00034  -0.00034   1.90885
    R8        3.40708  -0.02726   0.00000   0.00000   0.00000   3.40708
    R9        1.90916   0.00005   0.00000   0.00012   0.00012   1.90928
   R10        1.90916   0.00005   0.00000   0.00012   0.00012   1.90928
   R11        2.27106   0.00029   0.00000   0.00117   0.00117   2.27222
   R12        2.27106   0.00029   0.00000   0.00117   0.00117   2.27222
    A1        1.57209   0.00142   0.00000  -0.00092  -0.00086   1.57122
    A2        1.89036  -0.00175   0.00000  -0.02771  -0.02773   1.86264
    A3        1.89036  -0.00175   0.00000  -0.02771  -0.02773   1.86264
    A4        1.99874   0.00014   0.00000   0.01218   0.01188   2.01062
[...]
 ! A17   A(4,3,6)              112.6953         -DE/DX =    0.0003              !
 ! A18   A(5,3,6)              109.1885         -DE/DX =   -0.0003              !
 ! A19   A(2,4,3)               93.8507         -DE/DX =   -0.0007              !
 ! A20   A(2,4,7)              114.2647         -DE/DX =    0.0002              !
 ! A21   A(2,4,8)              114.2647         -DE/DX =    0.0002              !
 ! A22   A(3,4,7)              106.8998         -DE/DX =    0.0002              !
 ! A23   A(3,4,8)              106.8998         -DE/DX =    0.0002              !
 ! A24   A(7,4,8)              117.3027         -DE/DX =   -0.0002              !
 ! D1    D(3,1,2,4)              0.0            -DE/DX =    0.0                 !
 ! D2    D(3,1,2,9)           -117.1234         -DE/DX =   -0.0001              !
 ! D3    D(3,1,2,10)           117.1234         -DE/DX =    0.0001              !
 ! D4    D(11,1,2,4)           116.3438         -DE/DX =    0.0001              !
 ! D5    D(11,1,2,9)            -0.7796         -DE/DX =   -0.0001              !
 ! D6    D(11,1,2,10)         -126.5328         -DE/DX =    0.0002              !
 ! D7    D(12,1,2,4)          -116.3438         -DE/DX =   -0.0001              !
 ! D8    D(12,1,2,9)           126.5328         -DE/DX =   -0.0002              !
 ! D9    D(12,1,2,10)            0.7796         -DE/DX =    0.0001              !
 ! D10   D(2,1,3,4)              0.0            -DE/DX =    0.0                 !
 ! D11   D(2,1,3,5)           -115.262          -DE/DX =    0.0002              !
 ! D12   D(2,1,3,6)            115.262          -DE/DX =   -0.0002              !
 ! D13   D(11,1,3,4)          -108.1351         -DE/DX =   -0.0001              !
 ! D14   D(11,1,3,5)           136.603          -DE/DX =    0.0                 !
 ! D15   D(11,1,3,6)             7.1269         -DE/DX =   -0.0003              !
 ! D16   D(12,1,3,4)           108.1351         -DE/DX =    0.0001              !
 ! D17   D(12,1,3,5)            -7.1269         -DE/DX =    0.0003              !
 ! D18   D(12,1,3,6)          -136.603          -DE/DX =    0.0                 !
 ! D19   D(1,2,4,3)              0.0            -DE/DX =    0.0                 !
 ! D20   D(1,2,4,7)            110.4831         -DE/DX =   -0.0001              !
 ! D21   D(1,2,4,8)           -110.4831         -DE/DX =    0.0001              !
 ! D22   D(9,2,4,3)            114.1423         -DE/DX =    0.0001              !
 ! D23   D(9,2,4,7)           -135.3746         -DE/DX =    0.0                 !
 ! D24   D(9,2,4,8)              3.6591         -DE/DX =    0.0001              !
 ! D25   D(10,2,4,3)          -114.1423         -DE/DX =   -0.0001              !
 ! D26   D(10,2,4,7)            -3.6591         -DE/DX =   -0.0001              !
 ! D27   D(10,2,4,8)           135.3746         -DE/DX =    0.0                 !
 ! D28   D(1,3,4,2)              0.0            -DE/DX =    0.0                 !
 ! D29   D(1,3,4,7)           -116.8029         -DE/DX =    0.0                 !
 ! D30   D(1,3,4,8)            116.8029         -DE/DX =    0.0                 !
 ! D31   D(5,3,4,2)            117.9353         -DE/DX =   -0.0001              !
 ! D32   D(5,3,4,7)              1.1324         -DE/DX =   -0.0001              !
 ! D33   D(5,3,4,8)           -125.2618         -DE/DX =   -0.0001              !
 ! D34   D(6,3,4,2)           -117.9353         -DE/DX =    0.0001              !
 ! D35   D(6,3,4,7)            125.2618         -DE/DX =    0.0001              !
 ! D36   D(6,3,4,8)             -1.1324         -DE/DX =    0.0001              !
 --------------------------------------------------------------------------------
 Lowest energy point so far.  Saving SCF results.
 GradGradGradGradGradGradGradGradGradGradGradGradGradGradGradGradGradGrad

 Summary of Optimized Potential Surface Scan
                           1         2
     Eigenvalues --  -164.09257-164.08674
           R1           1.80295   1.90295
           R2           1.56265   1.54910
           R3           1.20173   1.19881
           R4           1.20173   1.19881
           R5           1.56150   1.55354
           R6           1.01032   1.00975
           R7           1.01032   1.00975
           R8           1.80295   1.80295
           R9           1.01033   1.01058
           R10          1.01033   1.01058
           R11          1.20154   1.20273
           R12          1.20154   1.20273
           A1          91.87621  90.18867
           A2         107.74118 106.28064
           A3         107.74118 106.28064
           A4         114.11244 115.15293
           A5         114.11244 115.15293
           A6         117.62129 118.68085
           A7          88.12241  86.12087
           A8         113.29848 113.30378
           A9         113.29848 113.30378
           A10        115.83906 116.39261
           A11        115.83906 116.39261
           A12        109.21275 109.65444
           A13         88.08724  89.83978
           A14        115.83079 115.67575
           A15        115.83079 115.67575
           A16        113.31867 112.69526
           A17        113.31867 112.69526
           A18        109.22016 109.18847
           A19         91.91415  93.85068
           A20        114.21790 114.26472
           A21        114.21790 114.26472
           A22        107.74187 106.89982
           A23        107.74187 106.89982
           A24        117.41523 117.30266
           D1           0.00000   0.00000
           D2        -117.43088-117.12339
           D3         117.43088 117.12339
           D4         116.08076 116.34377
           D5          -1.35011  -0.77962
           D6        -126.48836-126.53285
           D7        -116.08076-116.34377
           D8         126.48836 126.53285
           D9           1.35011   0.77962
           D10          0.00000   0.00000
           D11       -115.07883-115.26195
           D12        115.07883 115.26195
           D13       -110.40710-108.13506
           D14        134.51408 136.60299
           D15          4.67173   7.12689
           D16        110.40710 108.13506
           D17         -4.67173  -7.12689
           D18       -134.51408-136.60299
           D19          0.00000   0.00000
           D20        110.44785 110.48314
           D21       -110.44785-110.48314
           D22        115.07589 114.14226
           D23       -134.47625-135.37460
           D24          4.62804   3.65911
           D25       -115.07589-114.14226
           D26         -4.62804  -3.65911
           D27        134.47625 135.37460
           D28          0.00000   0.00000
           D29       -116.20763-116.80290
           D30        116.20763 116.80290
           D31        117.40904 117.93531
           D32          1.20140   1.13241
           D33       -126.38333-125.26179
           D34       -117.40904-117.93531
           D35        126.38333 125.26179
           D36         -1.20140  -1.13241
 Largest change from initial coordinates is atom    1       0.023 Angstoms.
 Leave Link  103 at Thu Mar  9 14:58:48 2017, MaxMem=  1127874560 cpu:         0.1
 (Enter /share/apps/g09RelE.01/g09/l202.exe)
                          Input orientation:                          
 ---------------------------------------------------------------------
 Center     Atomic      Atomic             Coordinates (Angstroms)
 Number     Number       Type             X           Y           Z
 ---------------------------------------------------------------------
      1          5           0       -0.042003   -1.210203   -0.000000
      2          7           0        1.230933    0.204312   -0.000000
      3          7           0       -1.196896   -0.177766   -0.000000
      4          5           0        0.008483    1.163016   -0.000000
      5          1           0       -1.782386   -0.175719    0.823693
      6          1           0       -1.782386   -0.175719   -0.823693
      7          1           0       -0.143665    1.769948    1.027148
      8          1           0       -0.143665    1.769948   -1.027148
      9          1           0        1.812424    0.218422   -0.825391
     10          1           0        1.812424    0.218422    0.825391
     11          1           0        0.112762   -1.801603   -1.031228
     12          1           0        0.112762   -1.801603    1.031228
 ---------------------------------------------------------------------
                    Distance matrix (angstroms):
                    1          2          3          4          5
     1  B    0.000000
     2  N    1.902951   0.000000
     3  N    1.549098   2.457710   0.000000
     4  B    2.373756   1.553544   1.802952   0.000000
     5  H    2.185762   3.146901   1.010580   2.382832   0.000000
     6  H    2.185762   3.146901   1.010580   2.382832   1.647386
     7  H    3.153834   2.322879   2.440885   1.202725   2.551944
     8  H    3.153834   2.322879   2.440885   1.202725   3.145892
     9  H    2.482165   1.009753   3.145512   2.197210   3.974605
    10  H    2.482165   1.009753   3.145512   2.197210   3.616353
    11  H    1.198807   2.517426   2.327119   3.140584   3.110597
    12  H    1.198807   2.517426   2.327119   3.140584   2.505625
                    6          7          8          9         10
     6  H    0.000000
     7  H    3.145892   0.000000
     8  H    2.551944   2.054296   0.000000
     9  H    3.616353   3.108925   2.504839   0.000000
    10  H    3.974605   2.504839   3.108925   1.650782   0.000000
    11  H    2.505625   4.130211   3.580746   2.647966   3.227443
    12  H    3.110597   3.580746   4.130211   3.227443   2.647966
                   11         12
    11  H    0.000000
    12  H    2.062457   0.000000
 Stoichiometry    B2H8N2
 Framework group  CS[SG(B2N2),X(H8)]
 Deg. of freedom    17
 Full point group                 CS      NOp   2
 RotChk:  IX=0 Diff= 1.76D-16
 Largest Abelian subgroup         CS      NOp   2
 Largest concise Abelian subgroup CS      NOp   2
                         Standard orientation:                         
 ---------------------------------------------------------------------
 Center     Atomic      Atomic             Coordinates (Angstroms)
 Number     Number       Type             X           Y           Z
 ---------------------------------------------------------------------
      1          5           0       -0.037581   -1.209550    0.000000
      2          7           0        1.227645    0.211866    0.000000
      3          7           0       -1.198071   -0.183407    0.000000
      4          5           0        0.000000    1.163909    0.000000
      5          1           0       -1.783562   -0.184544    0.823693
      6          1           0       -1.783562   -0.184544   -0.823693
      7          1           0       -0.155445    1.770004    1.027148
      8          1           0       -0.155445    1.770004   -1.027148
      9          1           0        1.809051    0.229138   -0.825391
     10          1           0        1.809051    0.229138    0.825391
     11          1           0        0.120398   -1.800099   -1.031228
     12          1           0        0.120398   -1.800099    1.031228
 ---------------------------------------------------------------------
 Rotational constants (GHZ):     10.5836995      7.6901197      5.0818946
 Leave Link  202 at Thu Mar  9 14:58:48 2017, MaxMem=  1127874560 cpu:         0.0
 (Enter /share/apps/g09RelE.01/g09/l601.exe)
 Copying SCF densities to generalized density rwf, IOpCl= 0 IROHF=0.

 **********************************************************************

            Population analysis using the SCF density.

 **********************************************************************

 Orbital symmetries:
       Occupied  (A') (A') (A') (A') (A') (A') (A') (A") (A') (A")
                 (A') (A') (A') (A") (A") (A')
       Virtual   (A') (A') (A") (A') (A") (A') (A') (A') (A") (A')
                 (A') (A") (A") (A') (A') (A') (A") (A') (A') (A")
                 (A") (A') (A') (A') (A") (A') (A') (A") (A') (A')
                 (A") (A") (A') (A') (A') (A") (A") (A') (A') (A")
                 (A') (A") (A') (A') (A") (A') (A") (A') (A") (A')
                 (A') (A") (A") (A") (A') (A") (A') (A") (A') (A')
                 (A') (A") (A') (A") (A') (A") (A') (A') (A") (A')
                 (A') (A') (A') (A') (A") (A") (A') (A") (A") (A')
                 (A") (A') (A") (A') (A') (A') (A") (A') (A') (A')
                 (A") (A") (A') (A") (A') (A') (A') (A') (A") (A")
                 (A') (A') (A') (A')
 The electronic state is 1-A'.
 Alpha  occ. eigenvalues --  -14.44615 -14.43566  -6.84575  -6.83471  -0.99532
 Alpha  occ. eigenvalues --   -0.95594  -0.63972  -0.60998  -0.59363  -0.58196
 Alpha  occ. eigenvalues --   -0.47838  -0.46328  -0.44630  -0.39818  -0.38336
 Alpha  occ. eigenvalues --   -0.35001
 Alpha virt. eigenvalues --    0.10509   0.10631   0.14462   0.16487   0.19061
 Alpha virt. eigenvalues --    0.20256   0.20985   0.21633   0.23672   0.24569
 Alpha virt. eigenvalues --    0.25427   0.26136   0.33350   0.37677   0.39857
 Alpha virt. eigenvalues --    0.44115   0.44711   0.46627   0.47750   0.48612
 Alpha virt. eigenvalues --    0.51336   0.52556   0.54659   0.56033   0.61200
 Alpha virt. eigenvalues --    0.63569   0.64659   0.68616   0.74698   0.78613
 Alpha virt. eigenvalues --    0.78897   0.80211   0.80644   0.88690   0.92342
 Alpha virt. eigenvalues --    1.02480   1.12823   1.16555   1.20859   1.21574
 Alpha virt. eigenvalues --    1.22344   1.25676   1.26249   1.27473   1.32405
 Alpha virt. eigenvalues --    1.38275   1.38437   1.41797   1.63422   1.68341
 Alpha virt. eigenvalues --    1.70094   1.72418   1.74063   1.77195   1.78673
 Alpha virt. eigenvalues --    1.83802   1.84436   1.87152   1.88166   1.92595
 Alpha virt. eigenvalues --    1.94912   2.00589   2.01053   2.01724   2.10441
 Alpha virt. eigenvalues --    2.11934   2.17075   2.19608   2.24263   2.24424
 Alpha virt. eigenvalues --    2.31541   2.39265   2.46050   2.47720   2.57563
 Alpha virt. eigenvalues --    2.57958   2.58652   2.67645   2.68098   2.69084
 Alpha virt. eigenvalues --    2.76054   2.77540   2.81819   2.85191   2.87716
 Alpha virt. eigenvalues --    2.89693   2.92915   2.96267   2.98600   3.02481
 Alpha virt. eigenvalues --    3.04681   3.16341   3.21046   3.31734   4.14336
 Alpha virt. eigenvalues --    4.22908   4.55804   4.67485   4.82308   4.83487
 Alpha virt. eigenvalues --   14.60035  14.82794  35.65786  35.72427
          Condensed to atoms (all electrons):
               1          2          3          4          5          6
     1  B    3.625377   0.216097   0.301999  -0.058763  -0.026273  -0.026273
     2  N    0.216097   6.408744  -0.086763   0.304504   0.005248   0.005248
     3  N    0.301999  -0.086763   6.365018   0.231684   0.366794   0.366794
     4  B   -0.058763   0.304504   0.231684   3.621468  -0.014746  -0.014746
     5  H   -0.026273   0.005248   0.366794  -0.014746   0.462244  -0.027789
     6  H   -0.026273   0.005248   0.366794  -0.014746  -0.027789   0.462244
     7  H    0.002757  -0.022941  -0.023699   0.431284  -0.005143   0.002962
     8  H    0.002757  -0.022941  -0.023699   0.431284   0.002962  -0.005143
     9  H   -0.011662   0.367162   0.004941  -0.028179  -0.000475  -0.000099
    10  H   -0.011662   0.367162   0.004941  -0.028179  -0.000099  -0.000475
    11  H    0.429515  -0.020061  -0.021539   0.002143   0.004465  -0.009896
    12  H    0.429515  -0.020061  -0.021539   0.002143  -0.009896   0.004465
               7          8          9         10         11         12
     1  B    0.002757   0.002757  -0.011662  -0.011662   0.429515   0.429515
     2  N   -0.022941  -0.022941   0.367162   0.367162  -0.020061  -0.020061
     3  N   -0.023699  -0.023699   0.004941   0.004941  -0.021539  -0.021539
     4  B    0.431284   0.431284  -0.028179  -0.028179   0.002143   0.002143
     5  H   -0.005143   0.002962  -0.000475  -0.000099   0.004465  -0.009896
     6  H    0.002962  -0.005143  -0.000099  -0.000475  -0.009896   0.004465
     7  H    0.703551  -0.017210   0.004697  -0.010040  -0.001027   0.001323
     8  H   -0.017210   0.703551  -0.010040   0.004697   0.001323  -0.001027
     9  H    0.004697  -0.010040   0.464063  -0.028258  -0.003775   0.002375
    10  H   -0.010040   0.004697  -0.028258   0.464063   0.002375  -0.003775
    11  H   -0.001027   0.001323  -0.003775   0.002375   0.689797  -0.017680
    12  H    0.001323  -0.001027   0.002375  -0.003775  -0.017680   0.689797
 Mulliken charges:
               1
     1  B    0.126615
     2  N   -0.501397
     3  N   -0.464930
     4  B    0.120101
     5  H    0.242709
     6  H    0.242709
     7  H   -0.066513
     8  H   -0.066513
     9  H    0.239249
    10  H    0.239249
    11  H   -0.055639
    12  H   -0.055639
 Sum of Mulliken charges =  -0.00000
 Mulliken charges with hydrogens summed into heavy atoms:
               1
     1  B    0.015337
     2  N   -0.022900
     3  N    0.020488
     4  B   -0.012925
 Electronic spatial extent (au):  <R**2>=            304.2939
 Charge=             -0.0000 electrons
 Dipole moment (field-independent basis, Debye):
    X=             -0.2055    Y=             -0.2127    Z=              0.0000  Tot=              0.2958
 Quadrupole moment (field-independent basis, Debye-Ang):
   XX=            -19.2417   YY=            -35.7588   ZZ=            -27.1700
   XY=              1.8330   XZ=              0.0000   YZ=             -0.0000
 Traceless Quadrupole moment (field-independent basis, Debye-Ang):
   XX=              8.1485   YY=             -8.3686   ZZ=              0.2202
   XY=              1.8330   XZ=              0.0000   YZ=             -0.0000
 Octapole moment (field-independent basis, Debye-Ang**2):
  XXX=             -0.2243  YYY=             -0.6972  ZZZ=              0.0000  XYY=              0.1249
  XXY=              0.2234  XXZ=             -0.0000  XZZ=              0.0782  YZZ=             -0.1557
  YYZ=             -0.0000  XYZ=             -0.0000
 Hexadecapole moment (field-independent basis, Debye-Ang**3):
 XXXX=           -131.1419 YYYY=           -240.5040 ZZZZ=            -67.4832 XXXY=             -3.1021
 XXXZ=              0.0000 YYYX=             -4.7609 YYYZ=             -0.0000 ZZZX=              0.0000
 ZZZY=             -0.0000 XXYY=            -65.1610 XXZZ=            -26.5655 YYZZ=            -54.0585
 XXYZ=              0.0000 YYXZ=              0.0000 ZZXY=             -0.5718
 N-N= 1.183600539603D+02 E-N=-6.176655510613D+02  KE= 1.631299499696D+02
 Symmetry A'   KE= 1.547324256880D+02
 Symmetry A"   KE= 8.397524281591D+00
 No NMR shielding tensors so no spin-rotation constants.
 Leave Link  601 at Thu Mar  9 14:58:48 2017, MaxMem=  1127874560 cpu:         0.9
 (Enter /share/apps/g09RelE.01/g09/l9999.exe)
 1\1\GINC-COMPUTE-0-8\Scan\RwB97XD\6-311G(d,p)\B2H8N2\BERTA\09-Mar-2017
 \0\\#P RwB97XD/6-311G(d,p)int(grid=ultrafine) opt(modred,loose)\\AB2-m
 ult-scan3_1.gjf\\0,1\B,-0.0420034649,-1.2102034823,-0.0000000001\N,1.2
 309331282,0.2043116808,-0.0000000001\N,-1.196896267,-0.1777661726,-0.0
 000000001\B,0.0084825577,1.163015749,-0.0000000001\H,-1.782385539,-0.1
 7571928,0.8236928825\H,-1.782385539,-0.17571928,-0.8236928826\H,-0.143
 6645241,1.7699475641,1.0271481092\H,-0.1436645241,1.7699475641,-1.0271
 481093\H,1.8124242395,0.2184223753,-0.8253911376\H,1.8124242395,0.2184
 223753,0.8253911375\H,0.1127623465,-1.8016030464,-1.031228295\H,0.1127
 623465,-1.8016030464,1.0312282949\\Version=ES64L-G09RevE.01\State=1-A'
 \HF=-164.092575,-164.0867449\RMSD=4.525e-09,3.118e-09\PG=CS [SG(B2N2),
 X(H8)]\\@


 IN-LAWS ARE LIKE SEEDS. YOU DON'T NEED THEM
 BUT THEY COME WITH THE TOMATO.
 Job cpu time:       0 days  0 hours  5 minutes 50.4 seconds.
 File lengths (MBytes):  RWF=      9 Int=      0 D2E=      0 Chk=      3 Scr=      1
 Normal termination of Gaussian 09 at Thu Mar  9 14:58:48 2017.
