12
step 0 0.0
B   0.000000   1.111532   0.000000
N   -1.154966   0.000000   0.000000
N   1.154966   -0.000000   0.000000
B   -0.000000   -1.111532   0.000000
H   1.746262   -0.000000   0.819769
H   1.746262   -0.000000   -0.819769
H   0.000000   -1.756965   1.018609
H   0.000000   -1.756965   -1.018609
H   -1.746262   -0.000000   -0.819769
H   -1.746262   0.000000   0.819769
H   0.000000   1.756965   -1.018609
H   0.000000   1.756965   1.018609
12
step 1 2.74101430371
B   0.000360   -1.142594   0.000000
N   1.178644   0.086913   0.000000
N   -1.178340   -0.086865   0.000000
B   0.000000   1.142589   0.000000
H   -1.766316   -0.093088   0.821899
H   -1.766316   -0.093088   -0.821899
H   -0.068356   1.773099   1.022816
H   -0.068356   1.773099   -1.022816
H   1.766537   0.092619   -0.822088
H   1.766537   0.092619   0.822088
H   0.066174   -1.772786   -1.023421
H   0.066174   -1.772786   1.023421
12
step 2 8.76941634653
B   0.000636   -1.173379   0.000000
N   1.199596   0.173145   0.000000
N   -1.199819   -0.172984   0.000000
B   0.000000   1.172775   0.000000
H   -1.784764   -0.187275   0.823650
H   -1.784764   -0.187275   -0.823650
H   -0.133576   1.782400   1.026751
H   -0.133576   1.782400   -1.026751
H   1.784595   0.187313   -0.823609
H   1.784595   0.187313   0.823609
H   0.132933   -1.781490   -1.028029
H   0.132933   -1.781490   1.028029
12
step 3 15.6228594767
B   0.000697   -1.199903   0.000000
N   1.219914   0.261169   0.000000
N   -1.220056   -0.260982   0.000000
B   0.000000   1.199390   0.000000
H   -1.801015   -0.282308   0.825796
H   -1.801015   -0.282308   -0.825796
H   -0.201688   1.779675   1.030446
H   -0.201688   1.779675   -1.030446
H   1.801076   0.282544   -0.825679
H   1.801076   0.282544   0.825679
H   0.200378   -1.779284   -1.031627
H   0.200378   -1.779284   1.031627
12
step 4 21.6331762249
B   0.000758   -1.222046   0.000000
N   1.238730   0.352513   0.000000
N   -1.238773   -0.352242   0.000000
B   0.000000   1.221688   0.000000
H   -1.814629   -0.376089   0.828480
H   -1.814629   -0.376089   -0.828480
H   -0.271700   1.763076   1.033574
H   -0.271700   1.763076   -1.033574
H   1.815147   0.376795   -0.828178
H   1.815147   0.376795   0.828178
H   0.269439   -1.763837   -1.034546
H   0.269439   -1.763837   1.034546
12
step 5 25.6599457267
B   -0.000000   -1.230049   0.000000
N   1.261244   0.452705   0.000000
N   -1.261265   -0.452628   0.000000
B   -0.000197   1.230259   0.000000
H   -1.828445   -0.452659   0.833087
H   -1.828445   -0.452659   -0.833087
H   -0.342182   1.720515   1.037004
H   -0.342182   1.720515   -1.037004
H   1.828551   0.452587   -0.833019
H   1.828551   0.452587   0.833019
H   0.342645   -1.721239   -1.036428
H   0.342645   -1.721239   1.036428
12
step 6 27.2488368427
B   0.000000   -1.240513   0.000000
N   1.278445   0.553523   0.000000
N   -1.278509   -0.553415   0.000000
B   -0.000281   1.240777   0.000000
H   -1.834795   -0.509745   0.837708
H   -1.834795   -0.509745   -0.837708
H   -0.405289   1.671764   1.039450
H   -0.405289   1.671764   -1.039450
H   1.834946   0.509741   -0.837592
H   1.834946   0.509741   0.837592
H   0.406065   -1.672792   -1.038609
H   0.406065   -1.672792   1.038609
12
step 7 26.855773945
B   0.000000   -1.266811   0.000000
N   1.287090   0.642894   0.000000
N   -1.286703   -0.641636   0.000000
B   0.000604   1.267925   0.000000
H   -1.835464   -0.569185   0.840070
H   -1.835464   -0.569185   -0.840070
H   -0.451345   1.643929   1.040658
H   -0.451345   1.643929   -1.040658
H   1.834786   0.563855   -0.840137
H   1.834786   0.563855   0.840137
H   0.449161   -1.645784   -1.041113
H   0.449161   -1.645784   1.041113
12
step 8 25.3340659241
B   0.000000   -1.293902   0.000000
N   1.296980   0.728969   0.000000
N   -1.296501   -0.727442   0.000000
B   0.000519   1.295406   0.000000
H   -1.833782   -0.609056   0.841823
H   -1.833782   -0.609056   -0.841823
H   -0.482813   1.625459   1.041982
H   -0.482813   1.625459   -1.041982
H   1.831188   0.599179   -0.842020
H   1.831188   0.599179   0.842020
H   0.482434   -1.624686   -1.042346
H   0.482434   -1.624686   1.042346
12
step 9 23.5476961419
B   -0.952111   -0.930473   0.000000
N   1.487316   -0.370148   0.000000
N   -1.487227   0.370693   0.000000
B   0.952790   0.928417   0.000000
H   -1.731233   0.859570   0.844283
H   -1.731233   0.859570   -0.844283
H   0.799937   1.496306   1.040489
H   0.799937   1.496306   -1.040489
H   1.740289   -0.857083   -0.842747
H   1.740289   -0.857083   0.842747
H   -0.811003   -1.495558   -1.043442
H   -0.811003   -1.495558   1.043442
12
step 10 21.8928474464
B   -1.020612   -0.919023   0.000000
N   1.527301   -0.386563   0.000000
N   -1.527322   0.387085   0.000000
B   1.021123   0.916904   0.000000
H   -1.738914   0.890925   0.844373
H   -1.738914   0.890925   -0.844373
H   0.854479   1.480663   1.040761
H   0.854479   1.480663   -1.040761
H   1.753202   -0.886767   -0.842856
H   1.753202   -0.886767   0.842856
H   -0.869974   -1.481352   -1.043887
H   -0.869974   -1.481352   1.043887
