compute-0-12.local
 Entering Gaussian System, Link 0=g09
 Initial command:
 /share/apps/g09RelE.01/g09/l1.exe "/state/partition1/berta/Gau-8429.inp" -scrdir="/state/partition1/berta/"
 Entering Link 1 = /share/apps/g09RelE.01/g09/l1.exe PID=      8430.
  
 Copyright (c) 1988,1990,1992,1993,1995,1998,2003,2009,2015,
            Gaussian, Inc.  All Rights Reserved.
  
 This is part of the Gaussian(R) 09 program.  It is based on
 the Gaussian(R) 03 system (copyright 2003, Gaussian, Inc.),
 the Gaussian(R) 98 system (copyright 1998, Gaussian, Inc.),
 the Gaussian(R) 94 system (copyright 1995, Gaussian, Inc.),
 the Gaussian 92(TM) system (copyright 1992, Gaussian, Inc.),
 the Gaussian 90(TM) system (copyright 1990, Gaussian, Inc.),
 the Gaussian 88(TM) system (copyright 1988, Gaussian, Inc.),
 the Gaussian 86(TM) system (copyright 1986, Carnegie Mellon
 University), and the Gaussian 82(TM) system (copyright 1983,
 Carnegie Mellon University). Gaussian is a federally registered
 trademark of Gaussian, Inc.
  
 This software contains proprietary and confidential information,
 including trade secrets, belonging to Gaussian, Inc.
  
 This software is provided under written license and may be
 used, copied, transmitted, or stored only in accord with that
 written license.
  
 The following legend is applicable only to US Government
 contracts under FAR:
  
                    RESTRICTED RIGHTS LEGEND
  
 Use, reproduction and disclosure by the US Government is
 subject to restrictions as set forth in subparagraphs (a)
 and (c) of the Commercial Computer Software - Restricted
 Rights clause in FAR 52.227-19.
  
 Gaussian, Inc.
 340 Quinnipiac St., Bldg. 40, Wallingford CT 06492
  
  
 ---------------------------------------------------------------
 Warning -- This program may not be used in any manner that
 competes with the business of Gaussian, Inc. or will provide
 assistance to any competitor of Gaussian, Inc.  The licensee
 of this program is prohibited from giving any competitor of
 Gaussian, Inc. access to this program.  By using this program,
 the user acknowledges that Gaussian, Inc. is engaged in the
 business of creating and licensing software in the field of
 computational chemistry and represents and warrants to the
 licensee that it is not a competitor of Gaussian, Inc. and that
 it will not use this program in any manner prohibited above.
 ---------------------------------------------------------------
  

 Cite this work as:
 Gaussian 09, Revision E.01,
 M. J. Frisch, G. W. Trucks, H. B. Schlegel, G. E. Scuseria, 
 M. A. Robb, J. R. Cheeseman, G. Scalmani, V. Barone, B. Mennucci, 
 G. A. Petersson, H. Nakatsuji, M. Caricato, X. Li, H. P. Hratchian, 
 A. F. Izmaylov, J. Bloino, G. Zheng, J. L. Sonnenberg, M. Hada, 
 M. Ehara, K. Toyota, R. Fukuda, J. Hasegawa, M. Ishida, T. Nakajima, 
 Y. Honda, O. Kitao, H. Nakai, T. Vreven, J. A. Montgomery, Jr., 
 J. E. Peralta, F. Ogliaro, M. Bearpark, J. J. Heyd, E. Brothers, 
 K. N. Kudin, V. N. Staroverov, T. Keith, R. Kobayashi, J. Normand, 
 K. Raghavachari, A. Rendell, J. C. Burant, S. S. Iyengar, J. Tomasi, 
 M. Cossi, N. Rega, J. M. Millam, M. Klene, J. E. Knox, J. B. Cross, 
 V. Bakken, C. Adamo, J. Jaramillo, R. Gomperts, R. E. Stratmann, 
 O. Yazyev, A. J. Austin, R. Cammi, C. Pomelli, J. W. Ochterski, 
 R. L. Martin, K. Morokuma, V. G. Zakrzewski, G. A. Voth, 
 P. Salvador, J. J. Dannenberg, S. Dapprich, A. D. Daniels, 
 O. Farkas, J. B. Foresman, J. V. Ortiz, J. Cioslowski, 
 and D. J. Fox, Gaussian, Inc., Wallingford CT, 2013.
 
 ******************************************
 Gaussian 09:  ES64L-G09RevE.01 30-Nov-2015
                 9-Mar-2017 
 ******************************************
 %chk=AB-AB-NHscan.chk
 %nproc=4
 Will use up to    4 processors via shared memory.
 %mem=8605MB
 -----------------------------------------------------------
 #P RwB97XD/6-311G(d,p)int(grid=ultrafine) opt(modred,loose)
 -----------------------------------------------------------
 1/7=-1,14=-1,18=120,19=15,26=4,38=1/1,3;
 2/9=110,12=2,17=6,18=5,40=1/2;
 3/5=4,6=6,7=101,11=2,16=1,25=1,30=1,71=1,74=-58,75=-5,116=1/1,2,3;
 4//1;
 5/5=2,38=5/2;
 6/7=2,8=2,9=2,10=2,28=1/1;
 7//1,2,3,16;
 1/7=-1,14=-1,18=20,19=15,26=4/3(2);
 2/9=110/2;
 99//99;
 2/9=110/2;
 3/5=4,6=6,7=101,11=2,16=1,25=1,30=1,71=1,74=-58,75=-5,116=1/1,2,3;
 4/5=5,16=3,69=1/1;
 5/5=2,38=5/2;
 7//1,2,3,16;
 1/7=-1,14=-1,18=20,19=15,26=4/3(-5);
 2/9=110/2;
 6/7=2,8=2,9=2,10=2,19=2,28=1/1;
 99/9=1/99;
 Leave Link    1 at Thu Mar  9 15:22:47 2017, MaxMem=  1127874560 cpu:         0.3
 (Enter /share/apps/g09RelE.01/g09/l101.exe)
 --------------------
 AB2-mult-scan8_2.gjf
 --------------------
 Symbolic Z-matrix:
 Charge =  0 Multiplicity = 1
 B                     0.02484   1.3012    0. 
 N                    -1.31062  -0.69648   0. 
 N                     1.29074   0.65932   0. 
 B                     0.       -1.24793   0. 
 H                     1.82511   0.52454   0.84139 
 H                     1.82511   0.52454  -0.84139 
 H                     0.46812  -1.60642   1.04066 
 H                     0.46812  -1.60642  -1.04066 
 H                    -1.84731  -0.57788  -0.84177 
 H                    -1.84731  -0.57788   0.84177 
 H                    -0.43843   1.65667  -1.04209 
 H                    -0.43843   1.65667   1.04209 
 
 Add virtual bond connecting atoms N2         and B1         Dist= 4.54D+00.
 Add virtual bond connecting atoms B4         and N3         Dist= 4.35D+00.
 The following ModRedundant input section has been read:
 B       1       2 F                                                           
 B       3       4 S   1 0.1000                                                
 
 NAtoms=     12 NQM=       12 NQMF=       0 NMMI=      0 NMMIF=      0
                NMic=       0 NMicF=      0.
                    Isotopes and Nuclear Properties:
 (Nuclear quadrupole moments (NQMom) in fm**2, nuclear magnetic moments (NMagM)
  in nuclear magnetons)

  Atom         1           2           3           4           5           6           7           8           9          10
 IAtWgt=          11          14          14          11           1           1           1           1           1           1
 AtmWgt=  11.0093053  14.0030740  14.0030740  11.0093053   1.0078250   1.0078250   1.0078250   1.0078250   1.0078250   1.0078250
 NucSpn=           3           2           2           3           1           1           1           1           1           1
 AtZEff=   0.0000000   0.0000000   0.0000000   0.0000000   0.0000000   0.0000000   0.0000000   0.0000000   0.0000000   0.0000000
 NQMom=    4.0590000   2.0440000   2.0440000   4.0590000   0.0000000   0.0000000   0.0000000   0.0000000   0.0000000   0.0000000
 NMagM=    2.6886370   0.4037610   0.4037610   2.6886370   2.7928460   2.7928460   2.7928460   2.7928460   2.7928460   2.7928460
 AtZNuc=   5.0000000   7.0000000   7.0000000   5.0000000   1.0000000   1.0000000   1.0000000   1.0000000   1.0000000   1.0000000

  Atom        11          12
 IAtWgt=           1           1
 AtmWgt=   1.0078250   1.0078250
 NucSpn=           1           1
 AtZEff=   0.0000000   0.0000000
 NQMom=    0.0000000   0.0000000
 NMagM=    2.7928460   2.7928460
 AtZNuc=   1.0000000   1.0000000
 Leave Link  101 at Thu Mar  9 15:22:48 2017, MaxMem=  1127874560 cpu:         1.5
 (Enter /share/apps/g09RelE.01/g09/l103.exe)

 GradGradGradGradGradGradGradGradGradGradGradGradGradGradGradGradGradGrad
 Berny optimization.
 Initialization pass.
                           ----------------------------
                           !    Initial Parameters    !
                           ! (Angstroms and Degrees)  !
 --------------------------                            --------------------------
 ! Name  Definition              Value          Derivative Info.                !
 --------------------------------------------------------------------------------
 ! R1    R(1,2)                  2.4029         Frozen                          !
 ! R2    R(1,3)                  1.4193         estimate D2E/DX2                !
 ! R3    R(1,11)                 1.1945         estimate D2E/DX2                !
 ! R4    R(1,12)                 1.1945         estimate D2E/DX2                !
 ! R5    R(2,4)                  1.4219         estimate D2E/DX2                !
 ! R6    R(2,9)                  1.0053         estimate D2E/DX2                !
 ! R7    R(2,10)                 1.0053         estimate D2E/DX2                !
 ! R8    R(3,4)                  2.303          Scan                            !
 ! R9    R(3,5)                  1.0058         estimate D2E/DX2                !
 ! R10   R(3,6)                  1.0058         estimate D2E/DX2                !
 ! R11   R(4,7)                  1.1961         estimate D2E/DX2                !
 ! R12   R(4,8)                  1.1961         estimate D2E/DX2                !
 ! A1    A(2,1,3)               96.8755         estimate D2E/DX2                !
 ! A2    A(2,1,11)              91.8256         estimate D2E/DX2                !
 ! A3    A(2,1,12)              91.8256         estimate D2E/DX2                !
 ! A4    A(3,1,11)             118.7162         estimate D2E/DX2                !
 ! A5    A(3,1,12)             118.7162         estimate D2E/DX2                !
 ! A6    A(11,1,12)            121.4723         estimate D2E/DX2                !
 ! A7    A(1,2,4)               79.0561         estimate D2E/DX2                !
 ! A8    A(1,2,9)              101.4558         estimate D2E/DX2                !
 ! A9    A(1,2,10)             101.4558         estimate D2E/DX2                !
 ! A10   A(4,2,9)              122.535          estimate D2E/DX2                !
 ! A11   A(4,2,10)             122.535          estimate D2E/DX2                !
 ! A12   A(9,2,10)             113.715          estimate D2E/DX2                !
 ! A13   A(1,3,4)               82.799          estimate D2E/DX2                !
 ! A14   A(1,3,5)              122.3066         estimate D2E/DX2                !
 ! A15   A(1,3,6)              122.3066         estimate D2E/DX2                !
 ! A16   A(4,3,5)              100.7659         estimate D2E/DX2                !
 ! A17   A(4,3,6)              100.7659         estimate D2E/DX2                !
 ! A18   A(5,3,6)              113.5509         estimate D2E/DX2                !
 ! A19   A(2,4,3)              101.2695         estimate D2E/DX2                !
 ! A20   A(2,4,7)              118.4888         estimate D2E/DX2                !
 ! A21   A(2,4,8)              118.4888         estimate D2E/DX2                !
 ! A22   A(3,4,7)               91.6542         estimate D2E/DX2                !
 ! A23   A(3,4,8)               91.6542         estimate D2E/DX2                !
 ! A24   A(7,4,8)              120.9289         estimate D2E/DX2                !
 ! D1    D(3,1,2,4)              0.0            estimate D2E/DX2                !
 ! D2    D(3,1,2,9)           -121.3139         estimate D2E/DX2                !
 ! D3    D(3,1,2,10)           121.3139         estimate D2E/DX2                !
 ! D4    D(11,1,2,4)           119.2119         estimate D2E/DX2                !
 ! D5    D(11,1,2,9)            -2.102          estimate D2E/DX2                !
 ! D6    D(11,1,2,10)         -119.4743         estimate D2E/DX2                !
 ! D7    D(12,1,2,4)          -119.2119         estimate D2E/DX2                !
 ! D8    D(12,1,2,9)           119.4743         estimate D2E/DX2                !
 ! D9    D(12,1,2,10)            2.102          estimate D2E/DX2                !
 ! D10   D(2,1,3,4)              0.0            estimate D2E/DX2                !
 ! D11   D(2,1,3,5)            -98.2141         estimate D2E/DX2                !
 ! D12   D(2,1,3,6)             98.2141         estimate D2E/DX2                !
 ! D13   D(11,1,3,4)           -95.8916         estimate D2E/DX2                !
 ! D14   D(11,1,3,5)           165.8943         estimate D2E/DX2                !
 ! D15   D(11,1,3,6)             2.3224         estimate D2E/DX2                !
 ! D16   D(12,1,3,4)            95.8916         estimate D2E/DX2                !
 ! D17   D(12,1,3,5)            -2.3224         estimate D2E/DX2                !
 ! D18   D(12,1,3,6)          -165.8943         estimate D2E/DX2                !
 ! D19   D(1,2,4,3)              0.0            estimate D2E/DX2                !
 ! D20   D(1,2,4,7)             98.1423         estimate D2E/DX2                !
 ! D21   D(1,2,4,8)            -98.1423         estimate D2E/DX2                !
 ! D22   D(9,2,4,3)             96.6956         estimate D2E/DX2                !
 ! D23   D(9,2,4,7)           -165.1621         estimate D2E/DX2                !
 ! D24   D(9,2,4,8)             -1.4467         estimate D2E/DX2                !
 ! D25   D(10,2,4,3)           -96.6956         estimate D2E/DX2                !
 ! D26   D(10,2,4,7)             1.4467         estimate D2E/DX2                !
 ! D27   D(10,2,4,8)           165.1621         estimate D2E/DX2                !
 ! D28   D(1,3,4,2)              0.0            estimate D2E/DX2                !
 ! D29   D(1,3,4,7)           -119.4933         estimate D2E/DX2                !
 ! D30   D(1,3,4,8)            119.4933         estimate D2E/DX2                !
 ! D31   D(5,3,4,2)            121.6229         estimate D2E/DX2                !
 ! D32   D(5,3,4,7)              2.1295         estimate D2E/DX2                !
 ! D33   D(5,3,4,8)           -118.8838         estimate D2E/DX2                !
 ! D34   D(6,3,4,2)           -121.6229         estimate D2E/DX2                !
 ! D35   D(6,3,4,7)            118.8838         estimate D2E/DX2                !
 ! D36   D(6,3,4,8)             -2.1295         estimate D2E/DX2                !
 --------------------------------------------------------------------------------
 Trust Radius=3.00D-01 FncErr=1.00D-07 GrdErr=1.00D-06
 Number of optimizations in scan=   2
 Number of steps in this run=     82 maximum allowed number of steps=    100.
 GradGradGradGradGradGradGradGradGradGradGradGradGradGradGradGradGradGrad

 Leave Link  103 at Thu Mar  9 15:22:48 2017, MaxMem=  1127874560 cpu:         0.0
 (Enter /share/apps/g09RelE.01/g09/l202.exe)
                          Input orientation:                          
 ---------------------------------------------------------------------
 Center     Atomic      Atomic             Coordinates (Angstroms)
 Number     Number       Type             X           Y           Z
 ---------------------------------------------------------------------
      1          5           0        0.024835    1.301197    0.000000
      2          7           0       -1.310623   -0.696480    0.000000
      3          7           0        1.290741    0.659315    0.000000
      4          5           0        0.000000   -1.247927    0.000000
      5          1           0        1.825111    0.524539    0.841389
      6          1           0        1.825111    0.524539   -0.841389
      7          1           0        0.468123   -1.606424    1.040655
      8          1           0        0.468123   -1.606424   -1.040655
      9          1           0       -1.847306   -0.577880   -0.841767
     10          1           0       -1.847306   -0.577880    0.841767
     11          1           0       -0.438429    1.656666   -1.042087
     12          1           0       -0.438429    1.656666    1.042087
 ---------------------------------------------------------------------
                    Distance matrix (angstroms):
                    1          2          3          4          5
     1  B    0.000000
     2  N    2.402948   0.000000
     3  N    1.419342   2.933475   0.000000
     4  B    2.549245   1.421909   2.302951   0.000000
     5  H    2.133571   3.468667   1.005809   2.679664   0.000000
     6  H    2.133571   3.468667   1.005809   2.679664   1.682778
     7  H    3.119892   2.252753   2.625497   1.196086   2.534192
     8  H    3.119892   2.252753   2.625497   1.196086   3.150319
     9  H    2.782879   1.005319   3.476573   2.137773   4.187480
    10  H    2.782879   1.005319   3.476573   2.137773   3.834315
    11  H    1.194536   2.717345   2.251818   3.116862   3.154807
    12  H    1.194536   2.717345   2.251818   3.116862   2.538820
                    6          7          8          9         10
     6  H    0.000000
     7  H    3.150319   0.000000
     8  H    2.534192   2.081310   0.000000
     9  H    3.834315   3.156363   2.541391   0.000000
    10  H    4.187480   2.541391   3.156363   1.683534   0.000000
    11  H    2.538820   3.975853   3.386679   2.649200   3.244539
    12  H    3.154807   3.386679   3.975853   3.244539   2.649200
                   11         12
    11  H    0.000000
    12  H    2.084174   0.000000
 Stoichiometry    B2H8N2
 Framework group  CS[SG(B2N2),X(H8)]
 Deg. of freedom    17
 Full point group                 CS      NOp   2
 Largest Abelian subgroup         CS      NOp   2
 Largest concise Abelian subgroup CS      NOp   2
                         Standard orientation:                         
 ---------------------------------------------------------------------
 Center     Atomic      Atomic             Coordinates (Angstroms)
 Number     Number       Type             X           Y           Z
 ---------------------------------------------------------------------
      1          5           0       -0.024835   -1.301197    0.000000
      2          7           0        1.310623    0.696480    0.000000
      3          7           0       -1.290741   -0.659315    0.000000
      4          5           0        0.000000    1.247927    0.000000
      5          1           0       -1.825111   -0.524539    0.841389
      6          1           0       -1.825111   -0.524539   -0.841389
      7          1           0       -0.468123    1.606424    1.040655
      8          1           0       -0.468123    1.606424   -1.040655
      9          1           0        1.847306    0.577880   -0.841767
     10          1           0        1.847306    0.577880    0.841767
     11          1           0        0.438429   -1.656666   -1.042087
     12          1           0        0.438429   -1.656666    1.042087
 ---------------------------------------------------------------------
 Rotational constants (GHZ):     11.9524093      5.3417766      4.1276486
 Leave Link  202 at Thu Mar  9 15:22:48 2017, MaxMem=  1127874560 cpu:         0.0
 (Enter /share/apps/g09RelE.01/g09/l301.exe)
 Standard basis: 6-311G(d,p) (5D, 7F)
 Ernie: Thresh=  0.10000D-02 Tol=  0.10000D-05 Strict=F.
 There are    80 symmetry adapted cartesian basis functions of A'  symmetry.
 There are    44 symmetry adapted cartesian basis functions of A"  symmetry.
 There are    76 symmetry adapted basis functions of A'  symmetry.
 There are    44 symmetry adapted basis functions of A"  symmetry.
   120 basis functions,   192 primitive gaussians,   124 cartesian basis functions
    16 alpha electrons       16 beta electrons
       nuclear repulsion energy       113.2900001490 Hartrees.
 IExCor= 4639 DFT=T Ex+Corr=wB97XD ExCW=0 ScaHFX=  1.000000
 ScaDFX=  1.000000  1.000000  1.000000  1.000000 ScalE2=  1.000000  1.000000
 IRadAn=      5 IRanWt=     -1 IRanGd=            0 ICorTp=0 IEmpDi=121
  HFx wShort=  0.000000 wLong=  0.200000 cFull=  0.222036 cShort=  0.000000 cLong=  0.777964
  DFx wShort=  0.000000 wLong=  0.200000 cFull=  0.000000 cShort=  0.000000 cLong=  1.000000
 NAtoms=   12 NActive=   12 NUniq=    8 SFac= 2.25D+00 NAtFMM=   60 NAOKFM=F Big=F
 Integral buffers will be    131072 words long.
 Raffenetti 2 integral format.
 Two-electron integral symmetry is turned on.
 R6Disp:  Grimme-D2 Dispersion energy=       -0.0057303693 Hartrees.
 Nuclear repulsion after empirical dispersion term =      113.2842697797 Hartrees.
 Leave Link  301 at Thu Mar  9 15:22:48 2017, MaxMem=  1127874560 cpu:         0.3
 (Enter /share/apps/g09RelE.01/g09/l302.exe)
 NPDir=0 NMtPBC=     1 NCelOv=     1 NCel=       1 NClECP=     1 NCelD=      1
         NCelK=      1 NCelE2=     1 NClLst=     1 CellRange=     0.0.
 One-electron integrals computed using PRISM.
 One-electron integral symmetry used in STVInt
 NBasis=   120 RedAO= T EigKep=  5.73D-03  NBF=    76    44
 NBsUse=   120 1.00D-06 EigRej= -1.00D+00 NBFU=    76    44
 Precomputing XC quadrature grid using
 IXCGrd= 4 IRadAn=           5 IRanWt=          -1 IRanGd=           0 AccXCQ= 0.00D+00.
 Generated NRdTot=       0 NPtTot=           0 NUsed=           0 NTot=          32
 NSgBfM=   124   124   124   124   124 MxSgAt=    12 MxSgA2=    12.
 Leave Link  302 at Thu Mar  9 15:22:48 2017, MaxMem=  1127874560 cpu:         1.4
 (Enter /share/apps/g09RelE.01/g09/l303.exe)
 DipDrv:  MaxL=1.
 Leave Link  303 at Thu Mar  9 15:22:49 2017, MaxMem=  1127874560 cpu:         0.2
 (Enter /share/apps/g09RelE.01/g09/l401.exe)
 ExpMin= 9.89D-02 ExpMax= 6.29D+03 ExpMxC= 9.49D+02 IAcc=3 IRadAn=         5 AccDes= 0.00D+00
 Harris functional with IExCor= 4639 and IRadAn=       5 diagonalized for initial guess.
 HarFok:  IExCor= 4639 AccDes= 0.00D+00 IRadAn=         5 IDoV= 1 UseB2=F ITyADJ=14
 ICtDFT=  3500011 ScaDFX=  1.000000  1.000000  1.000000  1.000000
 FoFCou: FMM=F IPFlag=           0 FMFlag=      100000 FMFlg1=           0
         NFxFlg=           0 DoJE=T BraDBF=F KetDBF=T FulRan=T
         wScrn=  0.000000 ICntrl=     500 IOpCl=  0 I1Cent=   200000004 NGrid=           0
         NMat0=    1 NMatS0=      1 NMatT0=    0 NMatD0=    1 NMtDS0=    0 NMtDT0=    0
 Petite list used in FoFCou.
 Harris En= -156.190127483134    
 JPrj=0 DoOrth=F DoCkMO=F.
 Initial guess orbital symmetries:
       Occupied  (A') (A') (A') (A') (A') (A') (A') (A') (A") (A")
                 (A') (A') (A') (A") (A") (A')
       Virtual   (A') (A') (A') (A') (A") (A') (A") (A') (A") (A')
                 (A') (A") (A') (A") (A') (A") (A') (A') (A') (A")
                 (A') (A') (A") (A') (A') (A') (A") (A") (A") (A')
                 (A') (A") (A') (A') (A') (A") (A') (A') (A") (A')
                 (A") (A') (A") (A') (A") (A") (A') (A') (A') (A")
                 (A") (A') (A") (A') (A") (A') (A") (A') (A") (A')
                 (A') (A") (A") (A') (A') (A') (A') (A') (A") (A")
                 (A') (A') (A') (A') (A") (A") (A") (A') (A") (A')
                 (A') (A") (A") (A') (A') (A') (A') (A") (A') (A")
                 (A') (A') (A") (A") (A') (A') (A') (A') (A") (A")
                 (A') (A') (A') (A')
 The electronic state of the initial guess is 1-A'.
 Leave Link  401 at Thu Mar  9 15:22:50 2017, MaxMem=  1127874560 cpu:         5.8
 (Enter /share/apps/g09RelE.01/g09/l502.exe)
 Closed shell SCF:
 Using DIIS extrapolation, IDIIS=  1040.
 Integral symmetry usage will be decided dynamically.
 Keep R1 ints in memory in symmetry-blocked form, NReq=79321962.
 IVT=       66538 IEndB=       66538 NGot=  1127874560 MDV=  1114529905
 LenX=  1114529905 LenY=  1114514088
 Requested convergence on RMS density matrix=1.00D-08 within 128 cycles.
 Requested convergence on MAX density matrix=1.00D-06.
 Requested convergence on             energy=1.00D-06.
 No special actions if energy rises.
 FoFCou: FMM=F IPFlag=           0 FMFlag=           0 FMFlg1=           0
         NFxFlg=           0 DoJE=F BraDBF=F KetDBF=F FulRan=T
         wScrn=  0.000000 ICntrl=     600 IOpCl=  0 I1Cent=           0 NGrid=           0
         NMat0=    1 NMatS0=   7260 NMatT0=    0 NMatD0=    1 NMtDS0=    0 NMtDT0=    0
 Petite list used in FoFCou.
 Integral accuracy reduced to 1.0D-05 until final iterations.

 Cycle   1  Pass 0  IDiag  1:
 E= -164.016341332838    
 DIIS: error= 1.00D-01 at cycle   1 NSaved=   1.
 NSaved= 1 IEnMin= 1 EnMin= -164.016341332838     IErMin= 1 ErrMin= 1.00D-01
 ErrMax= 1.00D-01  0.00D+00 EMaxC= 1.00D-01 BMatC= 3.43D-01 BMatP= 3.43D-01
 IDIUse=3 WtCom= 0.00D+00 WtEn= 1.00D+00
 Coeff-Com:  0.100D+01
 Coeff-En:   0.100D+01
 Coeff:      0.100D+01
 Gap=     0.430 Goal=   None    Shift=    0.000
 GapD=    0.430 DampG=2.000 DampE=0.250 DampFc=0.5000 IDamp=-1.
 Damping current iteration by 5.00D-01
 RMSDP=1.48D-03 MaxDP=2.45D-02              OVMax= 7.98D-02

 Cycle   2  Pass 0  IDiag  1:
 E= -164.041003205327     Delta-E=       -0.024661872489 Rises=F Damp=T
 DIIS: error= 4.79D-02 at cycle   2 NSaved=   2.
 NSaved= 2 IEnMin= 2 EnMin= -164.041003205327     IErMin= 2 ErrMin= 4.79D-02
 ErrMax= 4.79D-02  0.00D+00 EMaxC= 1.00D-01 BMatC= 7.82D-02 BMatP= 3.43D-01
 IDIUse=3 WtCom= 5.21D-01 WtEn= 4.79D-01
 Coeff-Com: -0.887D+00 0.189D+01
 Coeff-En:   0.000D+00 0.100D+01
 Coeff:     -0.463D+00 0.146D+01
 Gap=     0.413 Goal=   None    Shift=    0.000
 RMSDP=6.42D-04 MaxDP=1.19D-02 DE=-2.47D-02 OVMax= 1.44D-02

 Cycle   3  Pass 0  IDiag  1:
 E= -164.064443138901     Delta-E=       -0.023439933574 Rises=F Damp=F
 DIIS: error= 1.98D-03 at cycle   3 NSaved=   3.
 NSaved= 3 IEnMin= 3 EnMin= -164.064443138901     IErMin= 3 ErrMin= 1.98D-03
 ErrMax= 1.98D-03  0.00D+00 EMaxC= 1.00D-01 BMatC= 2.33D-04 BMatP= 7.82D-02
 IDIUse=3 WtCom= 9.80D-01 WtEn= 1.98D-02
 Coeff-Com: -0.140D+00 0.309D+00 0.831D+00
 Coeff-En:   0.000D+00 0.000D+00 0.100D+01
 Coeff:     -0.137D+00 0.303D+00 0.834D+00
 Gap=     0.410 Goal=   None    Shift=    0.000
 RMSDP=9.66D-05 MaxDP=2.91D-03 DE=-2.34D-02 OVMax= 7.76D-03

 Cycle   4  Pass 0  IDiag  1:
 E= -164.064643210546     Delta-E=       -0.000200071645 Rises=F Damp=F
 DIIS: error= 6.73D-04 at cycle   4 NSaved=   4.
 NSaved= 4 IEnMin= 4 EnMin= -164.064643210546     IErMin= 4 ErrMin= 6.73D-04
 ErrMax= 6.73D-04  0.00D+00 EMaxC= 1.00D-01 BMatC= 4.37D-05 BMatP= 2.33D-04
 IDIUse=3 WtCom= 9.93D-01 WtEn= 6.73D-03
 Coeff-Com: -0.177D-01 0.428D-01 0.297D+00 0.678D+00
 Coeff-En:   0.000D+00 0.000D+00 0.000D+00 0.100D+01
 Coeff:     -0.176D-01 0.425D-01 0.295D+00 0.680D+00
 Gap=     0.410 Goal=   None    Shift=    0.000
 RMSDP=3.67D-05 MaxDP=1.50D-03 DE=-2.00D-04 OVMax= 2.32D-03

 Cycle   5  Pass 0  IDiag  1:
 E= -164.064678946212     Delta-E=       -0.000035735666 Rises=F Damp=F
 DIIS: error= 2.61D-04 at cycle   5 NSaved=   5.
 NSaved= 5 IEnMin= 5 EnMin= -164.064678946212     IErMin= 5 ErrMin= 2.61D-04
 ErrMax= 2.61D-04  0.00D+00 EMaxC= 1.00D-01 BMatC= 6.10D-06 BMatP= 4.37D-05
 IDIUse=3 WtCom= 9.97D-01 WtEn= 2.61D-03
 Coeff-Com:  0.259D-01-0.559D-01-0.589D-01 0.239D+00 0.849D+00
 Coeff-En:   0.000D+00 0.000D+00 0.000D+00 0.000D+00 0.100D+01
 Coeff:      0.259D-01-0.557D-01-0.587D-01 0.239D+00 0.850D+00
 Gap=     0.410 Goal=   None    Shift=    0.000
 RMSDP=2.00D-05 MaxDP=4.66D-04 DE=-3.57D-05 OVMax= 1.33D-03

 Cycle   6  Pass 0  IDiag  1:
 E= -164.064686630867     Delta-E=       -0.000007684655 Rises=F Damp=F
 DIIS: error= 6.80D-05 at cycle   6 NSaved=   6.
 NSaved= 6 IEnMin= 6 EnMin= -164.064686630867     IErMin= 6 ErrMin= 6.80D-05
 ErrMax= 6.80D-05  0.00D+00 EMaxC= 1.00D-01 BMatC= 1.63D-07 BMatP= 6.10D-06
 IDIUse=1 WtCom= 1.00D+00 WtEn= 0.00D+00
 Coeff-Com:  0.532D-02-0.116D-01-0.183D-01-0.285D-02 0.116D+00 0.911D+00
 Coeff:      0.532D-02-0.116D-01-0.183D-01-0.285D-02 0.116D+00 0.911D+00
 Gap=     0.410 Goal=   None    Shift=    0.000
 RMSDP=4.26D-06 MaxDP=6.68D-05 DE=-7.68D-06 OVMax= 3.58D-04

 Initial convergence to 1.0D-05 achieved.  Increase integral accuracy.
 Cycle   7  Pass 1  IDiag  1:
 E= -164.064726260691     Delta-E=       -0.000039629824 Rises=F Damp=F
 DIIS: error= 6.63D-05 at cycle   1 NSaved=   1.
 NSaved= 1 IEnMin= 1 EnMin= -164.064726260691     IErMin= 1 ErrMin= 6.63D-05
 ErrMax= 6.63D-05  0.00D+00 EMaxC= 1.00D-01 BMatC= 3.52D-07 BMatP= 3.52D-07
 IDIUse=1 WtCom= 1.00D+00 WtEn= 0.00D+00
 Coeff-Com:  0.100D+01
 Coeff:      0.100D+01
 Gap=     0.410 Goal=   None    Shift=    0.000
 RMSDP=4.26D-06 MaxDP=6.68D-05 DE=-3.96D-05 OVMax= 1.49D-04

 Cycle   8  Pass 1  IDiag  1:
 E= -164.064726581122     Delta-E=       -0.000000320431 Rises=F Damp=F
 DIIS: error= 1.86D-05 at cycle   2 NSaved=   2.
 NSaved= 2 IEnMin= 2 EnMin= -164.064726581122     IErMin= 2 ErrMin= 1.86D-05
 ErrMax= 1.86D-05  0.00D+00 EMaxC= 1.00D-01 BMatC= 5.31D-08 BMatP= 3.52D-07
 IDIUse=1 WtCom= 1.00D+00 WtEn= 0.00D+00
 Coeff-Com:  0.144D+00 0.856D+00
 Coeff:      0.144D+00 0.856D+00
 Gap=     0.410 Goal=   None    Shift=    0.000
 RMSDP=1.74D-06 MaxDP=7.15D-05 DE=-3.20D-07 OVMax= 9.74D-05

 Cycle   9  Pass 1  IDiag  1:
 E= -164.064726608166     Delta-E=       -0.000000027045 Rises=F Damp=F
 DIIS: error= 1.33D-05 at cycle   3 NSaved=   3.
 NSaved= 3 IEnMin= 3 EnMin= -164.064726608166     IErMin= 3 ErrMin= 1.33D-05
 ErrMax= 1.33D-05  0.00D+00 EMaxC= 1.00D-01 BMatC= 2.82D-08 BMatP= 5.31D-08
 IDIUse=1 WtCom= 1.00D+00 WtEn= 0.00D+00
 Coeff-Com: -0.699D-01 0.420D+00 0.650D+00
 Coeff:     -0.699D-01 0.420D+00 0.650D+00
 Gap=     0.410 Goal=   None    Shift=    0.000
 RMSDP=8.18D-07 MaxDP=3.30D-05 DE=-2.70D-08 OVMax= 4.69D-05

 Cycle  10  Pass 1  IDiag  1:
 E= -164.064726630856     Delta-E=       -0.000000022690 Rises=F Damp=F
 DIIS: error= 1.84D-06 at cycle   4 NSaved=   4.
 NSaved= 4 IEnMin= 4 EnMin= -164.064726630856     IErMin= 4 ErrMin= 1.84D-06
 ErrMax= 1.84D-06  0.00D+00 EMaxC= 1.00D-01 BMatC= 2.69D-10 BMatP= 2.82D-08
 IDIUse=1 WtCom= 1.00D+00 WtEn= 0.00D+00
 Coeff-Com: -0.144D-01 0.381D-01 0.930D-01 0.883D+00
 Coeff:     -0.144D-01 0.381D-01 0.930D-01 0.883D+00
 Gap=     0.410 Goal=   None    Shift=    0.000
 RMSDP=1.86D-07 MaxDP=4.17D-06 DE=-2.27D-08 OVMax= 1.21D-05

 Cycle  11  Pass 1  IDiag  1:
 E= -164.064726631323     Delta-E=       -0.000000000467 Rises=F Damp=F
 DIIS: error= 1.09D-06 at cycle   5 NSaved=   5.
 NSaved= 5 IEnMin= 5 EnMin= -164.064726631323     IErMin= 5 ErrMin= 1.09D-06
 ErrMax= 1.09D-06  0.00D+00 EMaxC= 1.00D-01 BMatC= 9.22D-11 BMatP= 2.69D-10
 IDIUse=1 WtCom= 1.00D+00 WtEn= 0.00D+00
 Coeff-Com:  0.549D-02-0.497D-01-0.649D-01 0.352D+00 0.757D+00
 Coeff:      0.549D-02-0.497D-01-0.649D-01 0.352D+00 0.757D+00
 Gap=     0.410 Goal=   None    Shift=    0.000
 RMSDP=9.06D-08 MaxDP=1.83D-06 DE=-4.67D-10 OVMax= 7.54D-06

 Cycle  12  Pass 1  IDiag  1:
 E= -164.064726631468     Delta-E=       -0.000000000145 Rises=F Damp=F
 DIIS: error= 3.83D-07 at cycle   6 NSaved=   6.
 NSaved= 6 IEnMin= 6 EnMin= -164.064726631468     IErMin= 6 ErrMin= 3.83D-07
 ErrMax= 3.83D-07  0.00D+00 EMaxC= 1.00D-01 BMatC= 8.24D-12 BMatP= 9.22D-11
 IDIUse=1 WtCom= 1.00D+00 WtEn= 0.00D+00
 Coeff-Com:  0.255D-02-0.144D-01-0.248D-01-0.512D-01 0.188D+00 0.900D+00
 Coeff:      0.255D-02-0.144D-01-0.248D-01-0.512D-01 0.188D+00 0.900D+00
 Gap=     0.410 Goal=   None    Shift=    0.000
 RMSDP=4.25D-08 MaxDP=6.74D-07 DE=-1.45D-10 OVMax= 3.54D-06

 Cycle  13  Pass 1  IDiag  1:
 E= -164.064726631487     Delta-E=       -0.000000000019 Rises=F Damp=F
 DIIS: error= 1.11D-07 at cycle   7 NSaved=   7.
 NSaved= 7 IEnMin= 7 EnMin= -164.064726631487     IErMin= 7 ErrMin= 1.11D-07
 ErrMax= 1.11D-07  0.00D+00 EMaxC= 1.00D-01 BMatC= 5.07D-13 BMatP= 8.24D-12
 IDIUse=1 WtCom= 1.00D+00 WtEn= 0.00D+00
 Coeff-Com: -0.229D-04 0.230D-02 0.147D-02-0.474D-01-0.365D-01 0.147D+00
 Coeff-Com:  0.933D+00
 Coeff:     -0.229D-04 0.230D-02 0.147D-02-0.474D-01-0.365D-01 0.147D+00
 Coeff:      0.933D+00
 Gap=     0.410 Goal=   None    Shift=    0.000
 RMSDP=1.44D-08 MaxDP=2.54D-07 DE=-1.88D-11 OVMax= 1.32D-06

 Cycle  14  Pass 1  IDiag  1:
 E= -164.064726631489     Delta-E=       -0.000000000002 Rises=F Damp=F
 DIIS: error= 3.54D-08 at cycle   8 NSaved=   8.
 NSaved= 8 IEnMin= 8 EnMin= -164.064726631489     IErMin= 8 ErrMin= 3.54D-08
 ErrMax= 3.54D-08  0.00D+00 EMaxC= 1.00D-01 BMatC= 3.65D-14 BMatP= 5.07D-13
 IDIUse=1 WtCom= 1.00D+00 WtEn= 0.00D+00
 Coeff-Com: -0.207D-03 0.129D-02 0.207D-02 0.371D-02-0.164D-01-0.777D-01
 Coeff-Com: -0.183D-01 0.111D+01
 Coeff:     -0.207D-03 0.129D-02 0.207D-02 0.371D-02-0.164D-01-0.777D-01
 Coeff:     -0.183D-01 0.111D+01
 Gap=     0.410 Goal=   None    Shift=    0.000
 RMSDP=4.92D-09 MaxDP=7.70D-08 DE=-2.16D-12 OVMax= 4.92D-07

 SCF Done:  E(RwB97XD) =  -164.064726631     A.U. after   14 cycles
            NFock= 14  Conv=0.49D-08     -V/T= 2.0042
 KE= 1.633776754222D+02 PE=-6.078976964478D+02 EE= 1.671710246144D+02
 Leave Link  502 at Thu Mar  9 15:23:08 2017, MaxMem=  1127874560 cpu:        71.3
 (Enter /share/apps/g09RelE.01/g09/l601.exe)
 Copying SCF densities to generalized density rwf, IOpCl= 0 IROHF=0.

 **********************************************************************

            Population analysis using the SCF density.

 **********************************************************************

 Orbital symmetries:
       Occupied  (A') (A') (A') (A') (A') (A') (A') (A') (A") (A")
                 (A') (A') (A') (A") (A") (A')
       Virtual   (A') (A') (A') (A") (A') (A") (A') (A') (A") (A')
                 (A") (A') (A') (A") (A') (A") (A') (A') (A') (A")
                 (A") (A') (A') (A') (A') (A') (A") (A") (A') (A')
                 (A") (A") (A') (A') (A') (A") (A') (A") (A') (A')
                 (A") (A') (A") (A') (A") (A") (A') (A') (A') (A")
                 (A") (A") (A') (A") (A') (A') (A') (A") (A") (A')
                 (A') (A") (A") (A') (A') (A') (A') (A") (A') (A")
                 (A') (A') (A') (A') (A") (A") (A") (A') (A") (A')
                 (A') (A") (A") (A') (A') (A') (A') (A") (A") (A')
                 (A') (A') (A") (A") (A') (A') (A') (A') (A") (A")
                 (A') (A') (A') (A')
 The electronic state is 1-A'.
 Alpha  occ. eigenvalues --  -14.42201 -14.41355  -6.84212  -6.83693  -0.97139
 Alpha  occ. eigenvalues --   -0.95410  -0.62241  -0.60424  -0.60230  -0.58653
 Alpha  occ. eigenvalues --   -0.48001  -0.47616  -0.42066  -0.40324  -0.39653
 Alpha  occ. eigenvalues --   -0.32710
 Alpha virt. eigenvalues --    0.08315   0.11071   0.14373   0.15260   0.15399
 Alpha virt. eigenvalues --    0.19539   0.20553   0.21007   0.23654   0.24475
 Alpha virt. eigenvalues --    0.27226   0.28275   0.33986   0.34368   0.39089
 Alpha virt. eigenvalues --    0.39661   0.46059   0.47475   0.51017   0.52401
 Alpha virt. eigenvalues --    0.55586   0.55684   0.55731   0.60144   0.63168
 Alpha virt. eigenvalues --    0.66011   0.67950   0.69991   0.78083   0.78650
 Alpha virt. eigenvalues --    0.79585   0.82869   0.83624   0.91643   0.94930
 Alpha virt. eigenvalues --    1.00330   1.00581   1.01897   1.02145   1.13908
 Alpha virt. eigenvalues --    1.22935   1.25086   1.25634   1.30643   1.31908
 Alpha virt. eigenvalues --    1.34134   1.39497   1.47051   1.64387   1.67070
 Alpha virt. eigenvalues --    1.68053   1.69807   1.73077   1.73999   1.75165
 Alpha virt. eigenvalues --    1.78730   1.81652   1.81763   1.89293   1.93012
 Alpha virt. eigenvalues --    2.00737   2.02329   2.03190   2.06370   2.08808
 Alpha virt. eigenvalues --    2.11901   2.16150   2.18264   2.18997   2.20624
 Alpha virt. eigenvalues --    2.29573   2.31780   2.48799   2.52199   2.52342
 Alpha virt. eigenvalues --    2.57185   2.60055   2.61569   2.61943   2.62698
 Alpha virt. eigenvalues --    2.65120   2.75065   2.77704   2.81916   2.82913
 Alpha virt. eigenvalues --    2.92284   2.94866   2.98933   3.03524   3.04398
 Alpha virt. eigenvalues --    3.11156   3.23450   3.32521   3.33720   3.96083
 Alpha virt. eigenvalues --    4.01116   4.71882   4.83153   4.86591   4.87472
 Alpha virt. eigenvalues --   14.77851  14.78965  35.72868  35.75824
          Condensed to atoms (all electrons):
               1          2          3          4          5          6
     1  B    3.586248   0.043134   0.441713  -0.001266  -0.033676  -0.033676
     2  N    0.043134   6.354648  -0.035247   0.447127   0.000743   0.000743
     3  N    0.441713  -0.035247   6.358162   0.046311   0.376408   0.376408
     4  B   -0.001266   0.447127   0.046311   3.578096  -0.003171  -0.003171
     5  H   -0.033676   0.000743   0.376408  -0.003171   0.462255  -0.034136
     6  H   -0.033676   0.000743   0.376408  -0.003171  -0.034136   0.462255
     7  H   -0.005154  -0.023003  -0.013116   0.437325  -0.001866   0.000927
     8  H   -0.005154  -0.023003  -0.013116   0.437325   0.000927  -0.001866
     9  H   -0.001900   0.377454   0.000635  -0.034957  -0.000061   0.000012
    10  H   -0.001900   0.377454   0.000635  -0.034957   0.000012  -0.000061
    11  H    0.436047  -0.009762  -0.022679  -0.004608   0.006111  -0.010190
    12  H    0.436047  -0.009762  -0.022679  -0.004608  -0.010190   0.006111
               7          8          9         10         11         12
     1  B   -0.005154  -0.005154  -0.001900  -0.001900   0.436047   0.436047
     2  N   -0.023003  -0.023003   0.377454   0.377454  -0.009762  -0.009762
     3  N   -0.013116  -0.013116   0.000635   0.000635  -0.022679  -0.022679
     4  B    0.437325   0.437325  -0.034957  -0.034957  -0.004608  -0.004608
     5  H   -0.001866   0.000927  -0.000061   0.000012   0.006111  -0.010190
     6  H    0.000927  -0.001866   0.000012  -0.000061  -0.010190   0.006111
     7  H    0.695664  -0.027947   0.006314  -0.010358  -0.000394   0.001077
     8  H   -0.027947   0.695664  -0.010358   0.006314   0.001077  -0.000394
     9  H    0.006314  -0.010358   0.467214  -0.034909  -0.001365   0.000751
    10  H   -0.010358   0.006314  -0.034909   0.467214   0.000751  -0.001365
    11  H   -0.000394   0.001077  -0.001365   0.000751   0.684321  -0.027891
    12  H    0.001077  -0.000394   0.000751  -0.001365  -0.027891   0.684321
 Mulliken charges:
               1
     1  B    0.139537
     2  N   -0.500523
     3  N   -0.493433
     4  B    0.140554
     5  H    0.236645
     6  H    0.236645
     7  H   -0.059469
     8  H   -0.059469
     9  H    0.231173
    10  H    0.231173
    11  H   -0.051417
    12  H   -0.051417
 Sum of Mulliken charges =   0.00000
 Mulliken charges with hydrogens summed into heavy atoms:
               1
     1  B    0.036703
     2  N   -0.038178
     3  N   -0.020142
     4  B    0.021617
 Electronic spatial extent (au):  <R**2>=            344.6683
 Charge=              0.0000 electrons
 Dipole moment (field-independent basis, Debye):
    X=             -0.1236    Y=             -0.1936    Z=              0.0000  Tot=              0.2297
 Quadrupole moment (field-independent basis, Debye-Ang):
   XX=            -21.0540   YY=            -33.1087   ZZ=            -26.4728
   XY=              2.0839   XZ=             -0.0000   YZ=             -0.0000
 Traceless Quadrupole moment (field-independent basis, Debye-Ang):
   XX=              5.8245   YY=             -6.2302   ZZ=              0.4057
   XY=              2.0839   XZ=             -0.0000   YZ=             -0.0000
 Octapole moment (field-independent basis, Debye-Ang**2):
  XXX=              0.0661  YYY=             -0.5793  ZZZ=             -0.0000  XYY=             -0.0564
  XXY=              0.1491  XXZ=             -0.0000  XZZ=              0.1028  YZZ=              0.0312
  YYZ=             -0.0000  XYZ=             -0.0000
 Hexadecapole moment (field-independent basis, Debye-Ang**3):
 XXXX=           -155.7699 YYYY=           -251.4918 ZZZZ=            -65.9733 XXXY=            -20.9727
 XXXZ=              0.0000 YYYX=            -25.6083 YYYZ=             -0.0000 ZZZX=              0.0000
 ZZZY=              0.0000 XXYY=            -78.0516 XXZZ=            -29.1254 YYZZ=            -56.0498
 XXYZ=              0.0000 YYXZ=             -0.0000 ZZXY=             -4.0714
 N-N= 1.132842697797D+02 E-N=-6.078976956528D+02  KE= 1.633776754222D+02
 Symmetry A'   KE= 1.549926617598D+02
 Symmetry A"   KE= 8.385013662389D+00
 No NMR shielding tensors so no spin-rotation constants.
 Leave Link  601 at Thu Mar  9 15:23:08 2017, MaxMem=  1127874560 cpu:         0.8
 (Enter /share/apps/g09RelE.01/g09/l701.exe)
 Compute integral first derivatives.
 ... and contract with generalized density number  0.
 R6Disp: Adding Grimme-D2 dispersion energy 1st derivatives to the gradient.
 Leave Link  701 at Thu Mar  9 15:23:09 2017, MaxMem=  1127874560 cpu:         0.8
 (Enter /share/apps/g09RelE.01/g09/l702.exe)
 L702 exits ... SP integral derivatives will be done elsewhere.
 Leave Link  702 at Thu Mar  9 15:23:09 2017, MaxMem=  1127874560 cpu:         0.1
 (Enter /share/apps/g09RelE.01/g09/l703.exe)
 Compute integral first derivatives, UseDBF=F ICtDFT=           0.
 Integral derivatives from FoFJK, PRISM(SPDF).
 Calling FoFJK, ICntrl=      2127 FMM=F ISym2X=1 I1Cent= 0 IOpClX= 0 NMat=1 NMatS=1 NMatT=0.
 FoFJK:  IHMeth= 1 ICntrl=    2127 DoSepK=T KAlg= 0 I1Cent=   0 FoldK=F
 IRaf=         1 NMat=   1 IRICut=       1 DoRegI=T DoRafI=F ISym2E= 1.
 FoFCou: FMM=F IPFlag=           0 FMFlag=      100000 FMFlg1=         800
         NFxFlg=           0 DoJE=F BraDBF=F KetDBF=F FulRan=T
         wScrn=  0.000000 ICntrl=    2527 IOpCl=  0 I1Cent=           0 NGrid=           0
         NMat0=    1 NMatS0=      1 NMatT0=    0 NMatD0=    1 NMtDS0=    0 NMtDT0=    0
 Petite list used in FoFCou.
 Leave Link  703 at Thu Mar  9 15:23:14 2017, MaxMem=  1127874560 cpu:        20.4
 (Enter /share/apps/g09RelE.01/g09/l716.exe)
 Dipole        =-4.86307995D-02-7.61851441D-02 2.22044605D-16
 ***** Axes restored to original set *****
 -------------------------------------------------------------------
 Center     Atomic                   Forces (Hartrees/Bohr)
 Number     Number              X              Y              Z
 -------------------------------------------------------------------
      1        5           0.002610831    0.003981869    0.000000000
      2        7          -0.002894842   -0.004150874    0.000000000
      3        7           0.004634458    0.006610639    0.000000000
      4        5          -0.004225705   -0.006729564    0.000000000
      5        1          -0.000029880    0.000025341    0.000026832
      6        1          -0.000029880    0.000025341   -0.000026832
      7        1          -0.000084828    0.000014181    0.000044506
      8        1          -0.000084828    0.000014181   -0.000044506
      9        1           0.000053042    0.000076638   -0.000046821
     10        1           0.000053042    0.000076638    0.000046821
     11        1          -0.000000705    0.000027805    0.000008391
     12        1          -0.000000705    0.000027805   -0.000008391
 -------------------------------------------------------------------
 Cartesian Forces:  Max     0.006729564 RMS     0.002215166
 Leave Link  716 at Thu Mar  9 15:23:14 2017, MaxMem=  1127874560 cpu:         0.2
 (Enter /share/apps/g09RelE.01/g09/l103.exe)

 GradGradGradGradGradGradGradGradGradGradGradGradGradGradGradGradGradGrad
 Berny optimization.
 FormGI is forming the generalized inverse of G from B-inverse, IUseBI=4.
 Internal  Forces:  Max     0.007611775 RMS     0.001098803
 Search for a local minimum.
 Step number   1 out of a maximum of   82 on scan point     1 out of     2
 All quantities printed in internal units (Hartrees-Bohrs-Radians)
 RMS Force = .28197D-04 SwitMx=.10000D-02 MixMth= 2
 Mixed Optimization -- En-DIIS/RFO-DIIS
 Second derivative matrix not updated -- first step.
 ITU=  0
     Eigenvalues ---    0.00560   0.02633   0.03719   0.03966   0.04116
     Eigenvalues ---    0.04435   0.04747   0.04875   0.06583   0.07188
     Eigenvalues ---    0.07911   0.08146   0.08190   0.08293   0.08324
     Eigenvalues ---    0.08645   0.09218   0.21844   0.24953   0.24953
     Eigenvalues ---    0.25068   0.25068   0.39566   0.42372   0.46681
     Eigenvalues ---    0.46681   0.46765   0.467651000.000001000.00000
     Eigenvalues --- 1000.000001000.000001000.000001000.000001000.00000
     Eigenvalues --- 1000.000001000.000001000.000001000.000001000.00000
     Eigenvalues --- 1000.000001000.000001000.000001000.000001000.00000
     Eigenvalues --- 1000.000001000.000001000.000001000.000001000.00000
     Eigenvalues --- 1000.000001000.000001000.000001000.000001000.00000
     Eigenvalues --- 1000.000001000.000001000.000001000.000001000.00000
     Eigenvalues --- 1000.000001000.000001000.000001000.000001000.00000
     Eigenvalues --- 1000.000001000.000001000.000001000.000001000.00000
     Eigenvalues --- 1000.000001000.00000
 RFO step:  Lambda=-5.82949051D-07 EMin= 5.60085391D-03
 Linear search not attempted -- first point.
 Iteration  1 RMS(Cart)=  0.00023595 RMS(Int)=  0.00000012
 Iteration  2 RMS(Cart)=  0.00000009 RMS(Int)=  0.00000008
 Iteration  1 RMS(Cart)=  0.00000000 RMS(Int)=  0.00000000
 ITry= 1 IFail=0 DXMaxC= 5.79D-04 DCOld= 1.00D+10 DXMaxT= 3.00D-01 DXLimC= 3.00D+00 Rises=F
 ClnCor:  largest displacement from symmetrization is 1.04D-11 for atom    12.
 Variable       Old X    -DE/DX   Delta X   Delta X   Delta X     New X
                                 (Linear)    (Quad)   (Total)
    R1        4.54091   0.00528   0.00000   0.00000   0.00000   4.54091
    R2        2.68217   0.00013   0.00000   0.00013   0.00013   2.68230
    R3        2.25735   0.00000   0.00000   0.00001   0.00001   2.25735
    R4        2.25735   0.00000   0.00000   0.00001   0.00001   2.25735
    R5        2.68702   0.00002   0.00000   0.00030   0.00030   2.68732
    R6        1.89978   0.00002   0.00000   0.00004   0.00004   1.89982
    R7        1.89978   0.00002   0.00000   0.00004   0.00004   1.89982
    R8        4.35195   0.00761   0.00000   0.00000  -0.00000   4.35195
    R9        1.90070   0.00000   0.00000   0.00001   0.00001   1.90071
   R10        1.90070   0.00000   0.00000   0.00001   0.00001   1.90071
   R11        2.26028   0.00000   0.00000   0.00001   0.00001   2.26028
   R12        2.26028   0.00000   0.00000   0.00001   0.00001   2.26028
    A1        1.69080   0.00046   0.00000   0.00006   0.00006   1.69086
    A2        1.60266  -0.00017   0.00000   0.00018   0.00018   1.60284
    A3        1.60266  -0.00017   0.00000   0.00018   0.00018   1.60284
    A4        2.07199  -0.00001   0.00000   0.00005   0.00005   2.07204
    A5        2.07199  -0.00001   0.00000   0.00005   0.00005   2.07204
    A6        2.12009   0.00000   0.00000  -0.00020  -0.00020   2.11989
    A7        1.37979   0.00042   0.00000  -0.00004  -0.00004   1.37974
    A8        1.77074  -0.00021   0.00000  -0.00068  -0.00068   1.77006
    A9        1.77074  -0.00021   0.00000  -0.00068  -0.00068   1.77006
   A10        2.13864  -0.00005   0.00000  -0.00003  -0.00003   2.13861
   A11        2.13864  -0.00005   0.00000  -0.00003  -0.00003   2.13861
   A12        1.98470   0.00008   0.00000   0.00035   0.00035   1.98506
   A13        1.44511  -0.00039   0.00000  -0.00002  -0.00002   1.44509
   A14        2.13465   0.00002   0.00000  -0.00022  -0.00022   2.13443
   A15        2.13465   0.00002   0.00000  -0.00022  -0.00022   2.13443
   A16        1.75870   0.00017   0.00000   0.00012   0.00012   1.75882
   A17        1.75870   0.00017   0.00000   0.00012   0.00012   1.75882
   A18        1.98184  -0.00002   0.00000   0.00037   0.00037   1.98220
   A19        1.76749  -0.00049   0.00000   0.00001   0.00001   1.76749
   A20        2.06802  -0.00001   0.00000  -0.00048  -0.00048   2.06754
   A21        2.06802  -0.00001   0.00000  -0.00048  -0.00048   2.06754
   A22        1.59967   0.00021   0.00000   0.00031   0.00031   1.59998
   A23        1.59967   0.00021   0.00000   0.00031   0.00031   1.59998
   A24        2.11061   0.00005   0.00000   0.00079   0.00079   2.11140
    D1        0.00000   0.00000   0.00000   0.00000   0.00000   0.00000
    D2       -2.11733  -0.00003   0.00000  -0.00004  -0.00004  -2.11736
    D3        2.11733   0.00003   0.00000   0.00004   0.00004   2.11736
    D4        2.08064   0.00001   0.00000   0.00009   0.00009   2.08073
    D5       -0.03669  -0.00002   0.00000   0.00005   0.00005  -0.03663
    D6       -2.08522   0.00003   0.00000   0.00013   0.00013  -2.08509
    D7       -2.08064  -0.00001   0.00000  -0.00009  -0.00009  -2.08073
    D8        2.08522  -0.00003   0.00000  -0.00013  -0.00013   2.08509
    D9        0.03669   0.00002   0.00000  -0.00005  -0.00005   0.03663
   D10        0.00000  -0.00000   0.00000  -0.00000   0.00000   0.00000
   D11       -1.71416   0.00005   0.00000  -0.00014  -0.00014  -1.71430
   D12        1.71416  -0.00005   0.00000   0.00014   0.00014   1.71430
   D13       -1.67362  -0.00006   0.00000  -0.00026  -0.00026  -1.67388
   D14        2.89540  -0.00002   0.00000  -0.00039  -0.00039   2.89501
   D15        0.04053  -0.00011   0.00000  -0.00012  -0.00012   0.04042
   D16        1.67362   0.00006   0.00000   0.00026   0.00026   1.67388
   D17       -0.04053   0.00011   0.00000   0.00012   0.00012  -0.04042
   D18       -2.89540   0.00002   0.00000   0.00039   0.00039  -2.89501
   D19        0.00000  -0.00000   0.00000  -0.00000   0.00000   0.00000
   D20        1.71291  -0.00004   0.00000   0.00024   0.00024   1.71314
   D21       -1.71291   0.00004   0.00000  -0.00024  -0.00024  -1.71314
   D22        1.68766   0.00002   0.00000  -0.00084  -0.00084   1.68682
   D23       -2.88262  -0.00002   0.00000  -0.00060  -0.00060  -2.88322
   D24       -0.02525   0.00006   0.00000  -0.00107  -0.00107  -0.02632
   D25       -1.68766  -0.00002   0.00000   0.00084   0.00084  -1.68682
   D26        0.02525  -0.00006   0.00000   0.00107   0.00107   0.02632
   D27        2.88262   0.00002   0.00000   0.00060   0.00060   2.88322
   D28        0.00000   0.00000   0.00000   0.00000   0.00000   0.00000
   D29       -2.08555   0.00003   0.00000   0.00041   0.00041  -2.08514
   D30        2.08555  -0.00003   0.00000  -0.00041  -0.00041   2.08514
   D31        2.12272  -0.00004   0.00000  -0.00023  -0.00023   2.12249
   D32        0.03717  -0.00001   0.00000   0.00018   0.00018   0.03735
   D33       -2.07491  -0.00008   0.00000  -0.00065  -0.00065  -2.07556
   D34       -2.12272   0.00004   0.00000   0.00023   0.00023  -2.12249
   D35        2.07491   0.00008   0.00000   0.00065   0.00065   2.07556
   D36       -0.03717   0.00001   0.00000  -0.00018  -0.00018  -0.03735
         Item               Value     Threshold  Converged?
 Maximum Force            0.000117     0.002500     YES
 RMS     Force            0.000028     0.001667     YES
 Maximum Displacement     0.000579     0.010000     YES
 RMS     Displacement     0.000236     0.006667     YES
 Predicted change in Energy=-2.915120D-07
 Optimization completed.
    -- Stationary point found.
                           ----------------------------
                           !   Optimized Parameters   !
                           ! (Angstroms and Degrees)  !
 --------------------------                            --------------------------
 ! Name  Definition              Value          Derivative Info.                !
 --------------------------------------------------------------------------------
 ! R1    R(1,2)                  2.4029         -DE/DX =    0.0053              !
 ! R2    R(1,3)                  1.4193         -DE/DX =    0.0001              !
 ! R3    R(1,11)                 1.1945         -DE/DX =    0.0                 !
 ! R4    R(1,12)                 1.1945         -DE/DX =    0.0                 !
 ! R5    R(2,4)                  1.4219         -DE/DX =    0.0                 !
 ! R6    R(2,9)                  1.0053         -DE/DX =    0.0                 !
 ! R7    R(2,10)                 1.0053         -DE/DX =    0.0                 !
 ! R8    R(3,4)                  2.303          -DE/DX =    0.0076              !
 ! R9    R(3,5)                  1.0058         -DE/DX =    0.0                 !
 ! R10   R(3,6)                  1.0058         -DE/DX =    0.0                 !
 ! R11   R(4,7)                  1.1961         -DE/DX =    0.0                 !
 ! R12   R(4,8)                  1.1961         -DE/DX =    0.0                 !
 ! A1    A(2,1,3)               96.8755         -DE/DX =    0.0005              !
 ! A2    A(2,1,11)              91.8256         -DE/DX =   -0.0002              !
 ! A3    A(2,1,12)              91.8256         -DE/DX =   -0.0002              !
 ! A4    A(3,1,11)             118.7162         -DE/DX =    0.0                 !
 ! A5    A(3,1,12)             118.7162         -DE/DX =    0.0                 !
 ! A6    A(11,1,12)            121.4723         -DE/DX =    0.0                 !
 ! A7    A(1,2,4)               79.0561         -DE/DX =    0.0004              !
 ! A8    A(1,2,9)              101.4558         -DE/DX =   -0.0002              !
 ! A9    A(1,2,10)             101.4558         -DE/DX =   -0.0002              !
 ! A10   A(4,2,9)              122.535          -DE/DX =    0.0                 !
 ! A11   A(4,2,10)             122.535          -DE/DX =    0.0                 !
 ! A12   A(9,2,10)             113.715          -DE/DX =    0.0001              !
 ! A13   A(1,3,4)               82.799          -DE/DX =   -0.0004              !
 ! A14   A(1,3,5)              122.3066         -DE/DX =    0.0                 !
 ! A15   A(1,3,6)              122.3066         -DE/DX =    0.0                 !
 ! A16   A(4,3,5)              100.7659         -DE/DX =    0.0002              !
 ! A17   A(4,3,6)              100.7659         -DE/DX =    0.0002              !
 ! A18   A(5,3,6)              113.5509         -DE/DX =    0.0                 !
 ! A19   A(2,4,3)              101.2695         -DE/DX =   -0.0005              !
 ! A20   A(2,4,7)              118.4888         -DE/DX =    0.0                 !
 ! A21   A(2,4,8)              118.4888         -DE/DX =    0.0                 !
 ! A22   A(3,4,7)               91.6542         -DE/DX =    0.0002              !
 ! A23   A(3,4,8)               91.6542         -DE/DX =    0.0002              !
 ! A24   A(7,4,8)              120.9289         -DE/DX =    0.0                 !
 ! D1    D(3,1,2,4)              0.0            -DE/DX =    0.0                 !
 ! D2    D(3,1,2,9)           -121.3139         -DE/DX =    0.0                 !
 ! D3    D(3,1,2,10)           121.3139         -DE/DX =    0.0                 !
 ! D4    D(11,1,2,4)           119.2119         -DE/DX =    0.0                 !
 ! D5    D(11,1,2,9)            -2.102          -DE/DX =    0.0                 !
 ! D6    D(11,1,2,10)         -119.4743         -DE/DX =    0.0                 !
 ! D7    D(12,1,2,4)          -119.2119         -DE/DX =    0.0                 !
 ! D8    D(12,1,2,9)           119.4743         -DE/DX =    0.0                 !
 ! D9    D(12,1,2,10)            2.102          -DE/DX =    0.0                 !
 ! D10   D(2,1,3,4)              0.0            -DE/DX =    0.0                 !
 ! D11   D(2,1,3,5)            -98.2141         -DE/DX =    0.0                 !
 ! D12   D(2,1,3,6)             98.2141         -DE/DX =    0.0                 !
 ! D13   D(11,1,3,4)           -95.8916         -DE/DX =   -0.0001              !
 ! D14   D(11,1,3,5)           165.8943         -DE/DX =    0.0                 !
 ! D15   D(11,1,3,6)             2.3224         -DE/DX =   -0.0001              !
 ! D16   D(12,1,3,4)            95.8916         -DE/DX =    0.0001              !
 ! D17   D(12,1,3,5)            -2.3224         -DE/DX =    0.0001              !
 ! D18   D(12,1,3,6)          -165.8943         -DE/DX =    0.0                 !
 ! D19   D(1,2,4,3)              0.0            -DE/DX =    0.0                 !
 ! D20   D(1,2,4,7)             98.1423         -DE/DX =    0.0                 !
 ! D21   D(1,2,4,8)            -98.1423         -DE/DX =    0.0                 !
 ! D22   D(9,2,4,3)             96.6956         -DE/DX =    0.0                 !
 ! D23   D(9,2,4,7)           -165.1621         -DE/DX =    0.0                 !
 ! D24   D(9,2,4,8)             -1.4467         -DE/DX =    0.0001              !
 ! D25   D(10,2,4,3)           -96.6956         -DE/DX =    0.0                 !
 ! D26   D(10,2,4,7)             1.4467         -DE/DX =   -0.0001              !
 ! D27   D(10,2,4,8)           165.1621         -DE/DX =    0.0                 !
 ! D28   D(1,3,4,2)              0.0            -DE/DX =    0.0                 !
 ! D29   D(1,3,4,7)           -119.4933         -DE/DX =    0.0                 !
 ! D30   D(1,3,4,8)            119.4933         -DE/DX =    0.0                 !
 ! D31   D(5,3,4,2)            121.6229         -DE/DX =    0.0                 !
 ! D32   D(5,3,4,7)              2.1295         -DE/DX =    0.0                 !
 ! D33   D(5,3,4,8)           -118.8838         -DE/DX =   -0.0001              !
 ! D34   D(6,3,4,2)           -121.6229         -DE/DX =    0.0                 !
 ! D35   D(6,3,4,7)            118.8838         -DE/DX =    0.0001              !
 ! D36   D(6,3,4,8)             -2.1295         -DE/DX =    0.0                 !
 --------------------------------------------------------------------------------
 Lowest energy point so far.  Saving SCF results.
 Iteration  1 RMS(Cart)=  0.02767553 RMS(Int)=  0.00846291
 Iteration  2 RMS(Cart)=  0.00011157 RMS(Int)=  0.00846249
 Iteration  3 RMS(Cart)=  0.00000040 RMS(Int)=  0.00846249
 Iteration  1 RMS(Cart)=  0.00573147 RMS(Int)=  0.00244333
 Iteration  2 RMS(Cart)=  0.00165486 RMS(Int)=  0.00268251
 Iteration  3 RMS(Cart)=  0.00047781 RMS(Int)=  0.00282949
 Iteration  4 RMS(Cart)=  0.00013796 RMS(Int)=  0.00287715
 Iteration  5 RMS(Cart)=  0.00003983 RMS(Int)=  0.00289131
 Iteration  6 RMS(Cart)=  0.00001150 RMS(Int)=  0.00289543
 Iteration  7 RMS(Cart)=  0.00000332 RMS(Int)=  0.00289663
 Iteration  8 RMS(Cart)=  0.00000096 RMS(Int)=  0.00289697
 GradGradGradGradGradGradGradGradGradGradGradGradGradGradGradGradGradGrad

 Leave Link  103 at Thu Mar  9 15:23:14 2017, MaxMem=  1127874560 cpu:         0.1
 (Enter /share/apps/g09RelE.01/g09/l202.exe)
                          Input orientation:                          
 ---------------------------------------------------------------------
 Center     Atomic      Atomic             Coordinates (Angstroms)
 Number     Number       Type             X           Y           Z
 ---------------------------------------------------------------------
      1          5           0        0.027427    1.299373    0.000000
      2          7           0       -1.311413   -0.696040    0.000000
      3          7           0        1.318376    0.701738    0.000000
      4          5           0       -0.023810   -1.291428    0.000000
      5          1           0        1.857776    0.581773    0.840431
      6          1           0        1.857776    0.581773   -0.840431
      7          1           0        0.434687   -1.662816    1.040430
      8          1           0        0.434687   -1.662816   -1.040430
      9          1           0       -1.842841   -0.562587   -0.842909
     10          1           0       -1.842841   -0.562587    0.842909
     11          1           0       -0.444935    1.641762   -1.042393
     12          1           0       -0.444935    1.641762    1.042393
 ---------------------------------------------------------------------
                    Distance matrix (angstroms):
                    1          2          3          4          5
     1  B    0.000000
     2  N    2.402949   0.000000
     3  N    1.422574   2.978182   0.000000
     4  B    2.591308   1.418594   2.402951   0.000000
     5  H    2.138095   3.518933   1.005817   2.784882   0.000000
     6  H    2.138095   3.518933   1.005817   2.784882   1.680861
     7  H    3.165900   2.250781   2.730296   1.196095   2.665213
     8  H    3.165900   2.250781   2.730296   1.196095   3.255918
     9  H    2.770432   1.005346   3.507464   2.133209   4.223477
    10  H    2.770432   1.005346   3.507464   2.133209   3.873517
    11  H    1.194545   2.702348   2.253773   3.141263   3.157701
    12  H    1.194545   2.702348   2.253773   3.141263   2.542999
                    6          7          8          9         10
     6  H    0.000000
     7  H    3.255918   0.000000
     8  H    2.665213   2.080861   0.000000
     9  H    3.873517   3.153507   2.537056   0.000000
    10  H    4.223477   2.537056   3.153507   1.685818   0.000000
    11  H    2.542999   4.004013   3.419645   2.617841   3.219885
    12  H    3.157701   3.419645   4.004013   3.219885   2.617841
                   11         12
    11  H    0.000000
    12  H    2.084786   0.000000
 Stoichiometry    B2H8N2
 Framework group  CS[SG(B2N2),X(H8)]
 Deg. of freedom    17
 Full point group                 CS      NOp   2
 RotChk:  IX=2 Diff= 2.86D-02
 Largest Abelian subgroup         CS      NOp   2
 Largest concise Abelian subgroup CS      NOp   2
                         Standard orientation:                         
 ---------------------------------------------------------------------
 Center     Atomic      Atomic             Coordinates (Angstroms)
 Number     Number       Type             X           Y           Z
 ---------------------------------------------------------------------
      1          5           0        0.001210   -1.297243    0.000000
      2          7           0        1.299390    0.724858    0.000000
      3          7           0       -1.301570   -0.725858    0.000000
      4          5           0        0.000000    1.294064    0.000000
      5          1           0       -1.843288   -0.616835    0.840431
      6          1           0       -1.843288   -0.616835   -0.840431
      7          1           0       -0.465919    1.656096    1.040430
      8          1           0       -0.465919    1.656096   -1.040430
      9          1           0        1.833410    0.602189   -0.842909
     10          1           0        1.833410    0.602189    0.842909
     11          1           0        0.480405   -1.630002   -1.042393
     12          1           0        0.480405   -1.630002    1.042393
 ---------------------------------------------------------------------
 Rotational constants (GHZ):     11.9171965      5.1558614      4.0118361
 Leave Link  202 at Thu Mar  9 15:23:14 2017, MaxMem=  1127874560 cpu:         0.0
 (Enter /share/apps/g09RelE.01/g09/l301.exe)
 Standard basis: 6-311G(d,p) (5D, 7F)
 Ernie: Thresh=  0.10000D-02 Tol=  0.10000D-05 Strict=F.
 There are    80 symmetry adapted cartesian basis functions of A'  symmetry.
 There are    44 symmetry adapted cartesian basis functions of A"  symmetry.
 There are    76 symmetry adapted basis functions of A'  symmetry.
 There are    44 symmetry adapted basis functions of A"  symmetry.
   120 basis functions,   192 primitive gaussians,   124 cartesian basis functions
    16 alpha electrons       16 beta electrons
       nuclear repulsion energy       112.4585233831 Hartrees.
 IExCor= 4639 DFT=T Ex+Corr=wB97XD ExCW=0 ScaHFX=  1.000000
 ScaDFX=  1.000000  1.000000  1.000000  1.000000 ScalE2=  1.000000  1.000000
 IRadAn=      5 IRanWt=     -1 IRanGd=            0 ICorTp=0 IEmpDi=121
  HFx wShort=  0.000000 wLong=  0.200000 cFull=  0.222036 cShort=  0.000000 cLong=  0.777964
  DFx wShort=  0.000000 wLong=  0.200000 cFull=  0.000000 cShort=  0.000000 cLong=  1.000000
 NAtoms=   12 NActive=   12 NUniq=    8 SFac= 2.25D+00 NAtFMM=   60 NAOKFM=F Big=F
 Integral buffers will be    131072 words long.
 Raffenetti 2 integral format.
 Two-electron integral symmetry is turned on.
 R6Disp:  Grimme-D2 Dispersion energy=       -0.0057061244 Hartrees.
 Nuclear repulsion after empirical dispersion term =      112.4528172588 Hartrees.
 Leave Link  301 at Thu Mar  9 15:23:14 2017, MaxMem=  1127874560 cpu:         0.3
 (Enter /share/apps/g09RelE.01/g09/l302.exe)
 NPDir=0 NMtPBC=     1 NCelOv=     1 NCel=       1 NClECP=     1 NCelD=      1
         NCelK=      1 NCelE2=     1 NClLst=     1 CellRange=     0.0.
 One-electron integrals computed using PRISM.
 One-electron integral symmetry used in STVInt
 NBasis=   120 RedAO= T EigKep=  5.95D-03  NBF=    76    44
 NBsUse=   120 1.00D-06 EigRej= -1.00D+00 NBFU=    76    44
 Precomputing XC quadrature grid using
 IXCGrd= 4 IRadAn=           5 IRanWt=          -1 IRanGd=           0 AccXCQ= 0.00D+00.
 Generated NRdTot=       0 NPtTot=           0 NUsed=           0 NTot=          32
 NSgBfM=   124   124   124   124   124 MxSgAt=    12 MxSgA2=    12.
 Leave Link  302 at Thu Mar  9 15:23:15 2017, MaxMem=  1127874560 cpu:         1.4
 (Enter /share/apps/g09RelE.01/g09/l303.exe)
 DipDrv:  MaxL=1.
 Leave Link  303 at Thu Mar  9 15:23:15 2017, MaxMem=  1127874560 cpu:         0.2
 (Enter /share/apps/g09RelE.01/g09/l401.exe)
 Initial guess from the checkpoint file:  "AB-AB-NHscan.chk"
 B after Tr=     0.000000    0.000000   -0.000000
         Rot=    0.999943   -0.000000    0.000000   -0.010664 Ang=  -1.22 deg.
 Guess basis will be translated and rotated to current coordinates.
 JPrj=2 DoOrth=T DoCkMO=T.
 Initial guess orbital symmetries:
       Occupied  (A') (A') (A') (A') (A') (A') (A') (A') (A") (A")
                 (A') (A') (A') (A") (A") (A')
       Virtual   (A') (A') (A') (A') (A') (A') (A') (A') (A') (A')
                 (A') (A') (A') (A') (A') (A') (A') (A') (A') (A')
                 (A') (A') (A') (A') (A') (A') (A') (A') (A') (A')
                 (A') (A') (A') (A') (A') (A') (A') (A') (A') (A')
                 (A') (A') (A') (A') (A') (A') (A') (A') (A') (A')
                 (A') (A') (A') (A') (A') (A') (A') (A') (A') (A')
                 (A') (A') (A') (A') (A") (A") (A") (A") (A") (A")
                 (A") (A") (A") (A") (A") (A") (A") (A") (A") (A")
                 (A") (A") (A") (A") (A") (A") (A") (A") (A") (A")
                 (A") (A") (A") (A") (A") (A") (A") (A") (A") (A")
                 (A") (A") (A") (A")
 The electronic state of the initial guess is 1-A'.
 Generating alternative initial guess.
 ExpMin= 9.89D-02 ExpMax= 6.29D+03 ExpMxC= 9.49D+02 IAcc=2 IRadAn=         4 AccDes= 0.00D+00
 Harris functional with IExCor= 4639 and IRadAn=       4 diagonalized for initial guess.
 HarFok:  IExCor= 4639 AccDes= 0.00D+00 IRadAn=         4 IDoV= 1 UseB2=F ITyADJ=14
 ICtDFT=  3500011 ScaDFX=  1.000000  1.000000  1.000000  1.000000
 FoFCou: FMM=F IPFlag=           0 FMFlag=      100000 FMFlg1=           0
         NFxFlg=           0 DoJE=T BraDBF=F KetDBF=T FulRan=T
         wScrn=  0.000000 ICntrl=     500 IOpCl=  0 I1Cent=   200000004 NGrid=           0
         NMat0=    1 NMatS0=      1 NMatT0=    0 NMatD0=    1 NMtDS0=    0 NMtDT0=    0
 Petite list used in FoFCou.
 Harris En= -156.191368651040    
 Leave Link  401 at Thu Mar  9 15:23:15 2017, MaxMem=  1127874560 cpu:         3.1
 (Enter /share/apps/g09RelE.01/g09/l502.exe)
 Closed shell SCF:
 Using DIIS extrapolation, IDIIS=  1040.
 Integral symmetry usage will be decided dynamically.
 Keep R1 ints in memory in symmetry-blocked form, NReq=79321962.
 IVT=       66538 IEndB=       66538 NGot=  1127874560 MDV=  1114529905
 LenX=  1114529905 LenY=  1114514088
 Requested convergence on RMS density matrix=1.00D-08 within 128 cycles.
 Requested convergence on MAX density matrix=1.00D-06.
 Requested convergence on             energy=1.00D-06.
 No special actions if energy rises.
 FoFCou: FMM=F IPFlag=           0 FMFlag=           0 FMFlg1=           0
         NFxFlg=           0 DoJE=F BraDBF=F KetDBF=F FulRan=T
         wScrn=  0.000000 ICntrl=     600 IOpCl=  0 I1Cent=           0 NGrid=           0
         NMat0=    1 NMatS0=   7260 NMatT0=    0 NMatD0=    1 NMtDS0=    0 NMtDT0=    0
 Petite list used in FoFCou.
 Integral accuracy reduced to 1.0D-05 until final iterations.

 Cycle   1  Pass 0  IDiag  1:
 E= -164.064582264188    
 DIIS: error= 3.13D-03 at cycle   1 NSaved=   1.
 NSaved= 1 IEnMin= 1 EnMin= -164.064582264188     IErMin= 1 ErrMin= 3.13D-03
 ErrMax= 3.13D-03  0.00D+00 EMaxC= 1.00D-01 BMatC= 6.33D-04 BMatP= 6.33D-04
 IDIUse=3 WtCom= 9.69D-01 WtEn= 3.13D-02
 Coeff-Com:  0.100D+01
 Coeff-En:   0.100D+01
 Coeff:      0.100D+01
 Gap=     0.756 Goal=   None    Shift=    0.000
 GapD=    0.756 DampG=2.000 DampE=1.000 DampFc=2.0000 IDamp=-1.
 RMSDP=2.39D-04 MaxDP=3.14D-03              OVMax= 1.23D-02

 Cycle   2  Pass 0  IDiag  1:
 E= -164.065786162803     Delta-E=       -0.001203898615 Rises=F Damp=F
 DIIS: error= 1.11D-03 at cycle   2 NSaved=   2.
 NSaved= 2 IEnMin= 2 EnMin= -164.065786162803     IErMin= 2 ErrMin= 1.11D-03
 ErrMax= 1.11D-03  0.00D+00 EMaxC= 1.00D-01 BMatC= 3.62D-05 BMatP= 6.33D-04
 IDIUse=3 WtCom= 9.89D-01 WtEn= 1.11D-02
 Coeff-Com: -0.151D+00 0.115D+01
 Coeff-En:   0.000D+00 0.100D+01
 Coeff:     -0.149D+00 0.115D+01
 Gap=     0.412 Goal=   None    Shift=    0.000
 RMSDP=7.68D-05 MaxDP=9.51D-04 DE=-1.20D-03 OVMax= 5.29D-03

 Cycle   3  Pass 0  IDiag  1:
 E= -164.065884901210     Delta-E=       -0.000098738407 Rises=F Damp=F
 DIIS: error= 4.35D-04 at cycle   3 NSaved=   3.
 NSaved= 3 IEnMin= 3 EnMin= -164.065884901210     IErMin= 3 ErrMin= 4.35D-04
 ErrMax= 4.35D-04  0.00D+00 EMaxC= 1.00D-01 BMatC= 1.24D-05 BMatP= 3.62D-05
 IDIUse=3 WtCom= 9.96D-01 WtEn= 4.35D-03
 Coeff-Com: -0.928D-01 0.440D+00 0.653D+00
 Coeff-En:   0.000D+00 0.000D+00 0.100D+01
 Coeff:     -0.924D-01 0.438D+00 0.654D+00
 Gap=     0.412 Goal=   None    Shift=    0.000
 RMSDP=2.30D-05 MaxDP=6.18D-04 DE=-9.87D-05 OVMax= 1.63D-03

 Cycle   4  Pass 0  IDiag  1:
 E= -164.065897632309     Delta-E=       -0.000012731099 Rises=F Damp=F
 DIIS: error= 1.41D-04 at cycle   4 NSaved=   4.
 NSaved= 4 IEnMin= 4 EnMin= -164.065897632309     IErMin= 4 ErrMin= 1.41D-04
 ErrMax= 1.41D-04  0.00D+00 EMaxC= 1.00D-01 BMatC= 1.61D-06 BMatP= 1.24D-05
 IDIUse=3 WtCom= 9.99D-01 WtEn= 1.41D-03
 Coeff-Com:  0.777D-03-0.847D-01 0.215D+00 0.869D+00
 Coeff-En:   0.000D+00 0.000D+00 0.000D+00 0.100D+01
 Coeff:      0.776D-03-0.846D-01 0.215D+00 0.869D+00
 Gap=     0.412 Goal=   None    Shift=    0.000
 RMSDP=1.38D-05 MaxDP=3.05D-04 DE=-1.27D-05 OVMax= 1.04D-03

 Cycle   5  Pass 0  IDiag  1:
 E= -164.065900411386     Delta-E=       -0.000002779077 Rises=F Damp=F
 DIIS: error= 3.67D-05 at cycle   5 NSaved=   5.
 NSaved= 5 IEnMin= 5 EnMin= -164.065900411386     IErMin= 5 ErrMin= 3.67D-05
 ErrMax= 3.67D-05  0.00D+00 EMaxC= 1.00D-01 BMatC= 6.94D-08 BMatP= 1.61D-06
 IDIUse=1 WtCom= 1.00D+00 WtEn= 0.00D+00
 Coeff-Com:  0.794D-02-0.494D-01-0.402D-01 0.981D-01 0.983D+00
 Coeff:      0.794D-02-0.494D-01-0.402D-01 0.981D-01 0.983D+00
 Gap=     0.412 Goal=   None    Shift=    0.000
 RMSDP=4.89D-06 MaxDP=9.81D-05 DE=-2.78D-06 OVMax= 4.19D-04

 Initial convergence to 1.0D-05 achieved.  Increase integral accuracy.
 Cycle   6  Pass 1  IDiag  1:
 E= -164.065967895888     Delta-E=       -0.000067484502 Rises=F Damp=F
 DIIS: error= 3.38D-05 at cycle   1 NSaved=   1.
 NSaved= 1 IEnMin= 1 EnMin= -164.065967895888     IErMin= 1 ErrMin= 3.38D-05
 ErrMax= 3.38D-05  0.00D+00 EMaxC= 1.00D-01 BMatC= 1.81D-07 BMatP= 1.81D-07
 IDIUse=1 WtCom= 1.00D+00 WtEn= 0.00D+00
 Coeff-Com:  0.100D+01
 Coeff:      0.100D+01
 Gap=     0.412 Goal=   None    Shift=    0.000
 RMSDP=4.89D-06 MaxDP=9.81D-05 DE=-6.75D-05 OVMax= 2.14D-04

 Cycle   7  Pass 1  IDiag  1:
 E= -164.065968150478     Delta-E=       -0.000000254590 Rises=F Damp=F
 DIIS: error= 1.12D-05 at cycle   2 NSaved=   2.
 NSaved= 2 IEnMin= 2 EnMin= -164.065968150478     IErMin= 2 ErrMin= 1.12D-05
 ErrMax= 1.12D-05  0.00D+00 EMaxC= 1.00D-01 BMatC= 8.16D-09 BMatP= 1.81D-07
 IDIUse=1 WtCom= 1.00D+00 WtEn= 0.00D+00
 Coeff-Com: -0.121D+00 0.112D+01
 Coeff:     -0.121D+00 0.112D+01
 Gap=     0.412 Goal=   None    Shift=    0.000
 RMSDP=1.40D-06 MaxDP=1.87D-05 DE=-2.55D-07 OVMax= 1.00D-04

 Cycle   8  Pass 1  IDiag  1:
 E= -164.065968173838     Delta-E=       -0.000000023360 Rises=F Damp=F
 DIIS: error= 4.56D-06 at cycle   3 NSaved=   3.
 NSaved= 3 IEnMin= 3 EnMin= -164.065968173838     IErMin= 3 ErrMin= 4.56D-06
 ErrMax= 4.56D-06  0.00D+00 EMaxC= 1.00D-01 BMatC= 1.97D-09 BMatP= 8.16D-09
 IDIUse=1 WtCom= 1.00D+00 WtEn= 0.00D+00
 Coeff-Com: -0.614D-01 0.316D+00 0.745D+00
 Coeff:     -0.614D-01 0.316D+00 0.745D+00
 Gap=     0.412 Goal=   None    Shift=    0.000
 RMSDP=4.19D-07 MaxDP=1.08D-05 DE=-2.34D-08 OVMax= 3.38D-05

 Cycle   9  Pass 1  IDiag  1:
 E= -164.065968177101     Delta-E=       -0.000000003263 Rises=F Damp=F
 DIIS: error= 2.78D-06 at cycle   4 NSaved=   4.
 NSaved= 4 IEnMin= 4 EnMin= -164.065968177101     IErMin= 4 ErrMin= 2.78D-06
 ErrMax= 2.78D-06  0.00D+00 EMaxC= 1.00D-01 BMatC= 3.82D-10 BMatP= 1.97D-09
 IDIUse=1 WtCom= 1.00D+00 WtEn= 0.00D+00
 Coeff-Com:  0.131D-02-0.995D-01 0.219D+00 0.879D+00
 Coeff:      0.131D-02-0.995D-01 0.219D+00 0.879D+00
 Gap=     0.412 Goal=   None    Shift=    0.000
 RMSDP=2.54D-07 MaxDP=4.36D-06 DE=-3.26D-09 OVMax= 2.57D-05

 Cycle  10  Pass 1  IDiag  1:
 E= -164.065968178096     Delta-E=       -0.000000000995 Rises=F Damp=F
 DIIS: error= 9.52D-07 at cycle   5 NSaved=   5.
 NSaved= 5 IEnMin= 5 EnMin= -164.065968178096     IErMin= 5 ErrMin= 9.52D-07
 ErrMax= 9.52D-07  0.00D+00 EMaxC= 1.00D-01 BMatC= 6.19D-11 BMatP= 3.82D-10
 IDIUse=1 WtCom= 1.00D+00 WtEn= 0.00D+00
 Coeff-Com:  0.117D-01-0.946D-01-0.634D-01 0.271D+00 0.875D+00
 Coeff:      0.117D-01-0.946D-01-0.634D-01 0.271D+00 0.875D+00
 Gap=     0.412 Goal=   None    Shift=    0.000
 RMSDP=1.26D-07 MaxDP=2.04D-06 DE=-9.95D-10 OVMax= 1.23D-05

 Cycle  11  Pass 1  IDiag  1:
 E= -164.065968178261     Delta-E=       -0.000000000164 Rises=F Damp=F
 DIIS: error= 2.59D-07 at cycle   6 NSaved=   6.
 NSaved= 6 IEnMin= 6 EnMin= -164.065968178261     IErMin= 6 ErrMin= 2.59D-07
 ErrMax= 2.59D-07  0.00D+00 EMaxC= 1.00D-01 BMatC= 3.89D-12 BMatP= 6.19D-11
 IDIUse=1 WtCom= 1.00D+00 WtEn= 0.00D+00
 Coeff-Com:  0.261D-02-0.134D-01-0.265D-01-0.144D-01 0.188D+00 0.864D+00
 Coeff:      0.261D-02-0.134D-01-0.265D-01-0.144D-01 0.188D+00 0.864D+00
 Gap=     0.412 Goal=   None    Shift=    0.000
 RMSDP=2.89D-08 MaxDP=4.62D-07 DE=-1.64D-10 OVMax= 2.93D-06

 Cycle  12  Pass 1  IDiag  1:
 E= -164.065968178270     Delta-E=       -0.000000000009 Rises=F Damp=F
 DIIS: error= 9.13D-08 at cycle   7 NSaved=   7.
 NSaved= 7 IEnMin= 7 EnMin= -164.065968178270     IErMin= 7 ErrMin= 9.13D-08
 ErrMax= 9.13D-08  0.00D+00 EMaxC= 1.00D-01 BMatC= 9.43D-13 BMatP= 3.89D-12
 IDIUse=1 WtCom= 1.00D+00 WtEn= 0.00D+00
 Coeff-Com: -0.702D-03 0.889D-02 0.689D-03-0.453D-01-0.594D-01 0.340D+00
 Coeff-Com:  0.756D+00
 Coeff:     -0.702D-03 0.889D-02 0.689D-03-0.453D-01-0.594D-01 0.340D+00
 Coeff:      0.756D+00
 Gap=     0.412 Goal=   None    Shift=    0.000
 RMSDP=9.74D-09 MaxDP=2.02D-07 DE=-9.49D-12 OVMax= 9.75D-07

 SCF Done:  E(RwB97XD) =  -164.065968178     A.U. after   12 cycles
            NFock= 12  Conv=0.97D-08     -V/T= 2.0043
 KE= 1.633607665464D+02 PE=-6.062340898064D+02 EE= 1.663545378230D+02
 Leave Link  502 at Thu Mar  9 15:23:33 2017, MaxMem=  1127874560 cpu:        67.1
 (Enter /share/apps/g09RelE.01/g09/l701.exe)
 Compute integral first derivatives.
 ... and contract with generalized density number  0.
 R6Disp: Adding Grimme-D2 dispersion energy 1st derivatives to the gradient.
 Leave Link  701 at Thu Mar  9 15:23:33 2017, MaxMem=  1127874560 cpu:         1.2
 (Enter /share/apps/g09RelE.01/g09/l702.exe)
 L702 exits ... SP integral derivatives will be done elsewhere.
 Leave Link  702 at Thu Mar  9 15:23:33 2017, MaxMem=  1127874560 cpu:         0.1
 (Enter /share/apps/g09RelE.01/g09/l703.exe)
 Compute integral first derivatives, UseDBF=F ICtDFT=           0.
 Integral derivatives from FoFJK, PRISM(SPDF).
 Calling FoFJK, ICntrl=      2127 FMM=F ISym2X=1 I1Cent= 0 IOpClX= 0 NMat=1 NMatS=1 NMatT=0.
 FoFJK:  IHMeth= 1 ICntrl=    2127 DoSepK=T KAlg= 0 I1Cent=   0 FoldK=F
 IRaf=         1 NMat=   1 IRICut=       1 DoRegI=T DoRafI=F ISym2E= 1.
 FoFCou: FMM=F IPFlag=           0 FMFlag=      100000 FMFlg1=         800
         NFxFlg=           0 DoJE=F BraDBF=F KetDBF=F FulRan=T
         wScrn=  0.000000 ICntrl=    2527 IOpCl=  0 I1Cent=           0 NGrid=           0
         NMat0=    1 NMatS0=      1 NMatT0=    0 NMatD0=    1 NMtDS0=    0 NMtDT0=    0
 Petite list used in FoFCou.
 Leave Link  703 at Thu Mar  9 15:23:38 2017, MaxMem=  1127874560 cpu:        21.2
 (Enter /share/apps/g09RelE.01/g09/l716.exe)
 Dipole        =-1.19820949D-02-3.99066872D-02-2.22044605D-16
 ***** Axes restored to original set *****
 -------------------------------------------------------------------
 Center     Atomic                   Forces (Hartrees/Bohr)
 Number     Number              X              Y              Z
 -------------------------------------------------------------------
      1        5           0.007643169    0.003149194    0.000000000
      2        7          -0.001231274   -0.006002143   -0.000000000
      3        7           0.000524255    0.007215842    0.000000000
      4        5          -0.006727325   -0.008327682   -0.000000000
      5        1          -0.000618958   -0.000396819    0.000315534
      6        1          -0.000618958   -0.000396819   -0.000315534
      7        1           0.000855354    0.001927241   -0.000015885
      8        1           0.000855354    0.001927241    0.000015885
      9        1          -0.000204306    0.000443341    0.000025480
     10        1          -0.000204306    0.000443341   -0.000025480
     11        1          -0.000136502    0.000008632   -0.000113447
     12        1          -0.000136502    0.000008632    0.000113447
 -------------------------------------------------------------------
 Cartesian Forces:  Max     0.008327682 RMS     0.002806447
 Leave Link  716 at Thu Mar  9 15:23:38 2017, MaxMem=  1127874560 cpu:         0.1
 (Enter /share/apps/g09RelE.01/g09/l103.exe)

 GradGradGradGradGradGradGradGradGradGradGradGradGradGradGradGradGradGrad
 Berny optimization.
 FormGI is forming the generalized inverse of G from B-inverse, IUseBI=4.
 Internal  Forces:  Max     0.006335494 RMS     0.001182177
 Search for a local minimum.
 Step number   1 out of a maximum of   82 on scan point     2 out of     2
 All quantities printed in internal units (Hartrees-Bohrs-Radians)
 RMS Force = .67405D-03 SwitMx=.10000D-02 MixMth= 1
 Mixed Optimization -- RFO/linear search
 Second derivative matrix not updated -- first step.
 ITU=  0
     Eigenvalues ---    0.00549   0.02644   0.03708   0.03973   0.04145
     Eigenvalues ---    0.04417   0.04736   0.04886   0.06709   0.07058
     Eigenvalues ---    0.07942   0.08150   0.08172   0.08240   0.08329
     Eigenvalues ---    0.08797   0.09047   0.21845   0.24953   0.24953
     Eigenvalues ---    0.25068   0.25068   0.39661   0.42379   0.46681
     Eigenvalues ---    0.46681   0.46765   0.467651000.000001000.00000
     Eigenvalues --- 1000.000001000.000001000.000001000.000001000.00000
     Eigenvalues --- 1000.000001000.000001000.000001000.000001000.00000
     Eigenvalues --- 1000.000001000.000001000.000001000.000001000.00000
     Eigenvalues --- 1000.000001000.000001000.000001000.000001000.00000
     Eigenvalues --- 1000.000001000.000001000.000001000.000001000.00000
     Eigenvalues --- 1000.000001000.000001000.000001000.000001000.00000
     Eigenvalues --- 1000.000001000.000001000.000001000.000001000.00000
     Eigenvalues --- 1000.000001000.000001000.000001000.000001000.00000
     Eigenvalues --- 1000.000001000.00000
 RFO step:  Lambda=-2.55644465D-04 EMin= 5.49473967D-03
 Linear search not attempted -- first point.
 Iteration  1 RMS(Cart)=  0.00688242 RMS(Int)=  0.00010350
 Iteration  2 RMS(Cart)=  0.00007040 RMS(Int)=  0.00007050
 Iteration  3 RMS(Cart)=  0.00000001 RMS(Int)=  0.00007050
 Iteration  1 RMS(Cart)=  0.00000119 RMS(Int)=  0.00000051
 Iteration  2 RMS(Cart)=  0.00000034 RMS(Int)=  0.00000056
 ITry= 1 IFail=0 DXMaxC= 3.00D-02 DCOld= 1.00D+10 DXMaxT= 3.00D-01 DXLimC= 3.00D+00 Rises=F
 ClnCor:  largest displacement from symmetrization is 4.58D-10 for atom     8.
 Variable       Old X    -DE/DX   Delta X   Delta X   Delta X     New X
                                 (Linear)    (Quad)   (Total)
    R1        4.54092   0.00634   0.00000   0.00000  -0.00000   4.54092
    R2        2.68828  -0.00423   0.00000  -0.01061  -0.01061   2.67767
    R3        2.25736   0.00015   0.00000   0.00061   0.00061   2.25797
    R4        2.25736   0.00015   0.00000   0.00061   0.00061   2.25797
    R5        2.68075  -0.00179   0.00000  -0.00355  -0.00356   2.67720
    R6        1.89983   0.00015   0.00000   0.00032   0.00032   1.90015
    R7        1.89983   0.00015   0.00000   0.00032   0.00032   1.90015
    R8        4.54092   0.00534   0.00000   0.00000   0.00000   4.54092
[...]
 ! A18   A(5,3,6)              113.6671         -DE/DX =    0.0                 !
 ! A19   A(2,4,3)               99.0664         -DE/DX =    0.0001              !
 ! A20   A(2,4,7)              118.7617         -DE/DX =    0.0                 !
 ! A21   A(2,4,8)              118.7617         -DE/DX =    0.0                 !
 ! A22   A(3,4,7)               90.8132         -DE/DX =    0.0                 !
 ! A23   A(3,4,8)               90.8132         -DE/DX =    0.0                 !
 ! A24   A(7,4,8)              121.3549         -DE/DX =    0.0                 !
 ! D1    D(3,1,2,4)              0.0            -DE/DX =    0.0                 !
 ! D2    D(3,1,2,9)           -121.6863         -DE/DX =    0.0                 !
 ! D3    D(3,1,2,10)           121.6863         -DE/DX =    0.0                 !
 ! D4    D(11,1,2,4)           119.2887         -DE/DX =    0.0                 !
 ! D5    D(11,1,2,9)            -2.3977         -DE/DX =    0.0                 !
 ! D6    D(11,1,2,10)         -119.025          -DE/DX =    0.0                 !
 ! D7    D(12,1,2,4)          -119.2887         -DE/DX =    0.0                 !
 ! D8    D(12,1,2,9)           119.025          -DE/DX =    0.0                 !
 ! D9    D(12,1,2,10)            2.3977         -DE/DX =    0.0                 !
 ! D10   D(2,1,3,4)              0.0            -DE/DX =    0.0                 !
 ! D11   D(2,1,3,5)            -97.2188         -DE/DX =    0.0002              !
 ! D12   D(2,1,3,6)             97.2188         -DE/DX =   -0.0002              !
 ! D13   D(11,1,3,4)           -96.0223         -DE/DX =    0.0                 !
 ! D14   D(11,1,3,5)           166.759          -DE/DX =    0.0002              !
 ! D15   D(11,1,3,6)             1.1965         -DE/DX =   -0.0002              !
 ! D16   D(12,1,3,4)            96.0223         -DE/DX =    0.0                 !
 ! D17   D(12,1,3,5)            -1.1965         -DE/DX =    0.0002              !
 ! D18   D(12,1,3,6)          -166.759          -DE/DX =   -0.0002              !
 ! D19   D(1,2,4,3)              0.0            -DE/DX =    0.0                 !
 ! D20   D(1,2,4,7)             95.9685         -DE/DX =    0.0                 !
 ! D21   D(1,2,4,8)            -95.9685         -DE/DX =    0.0                 !
 ! D22   D(9,2,4,3)             96.4334         -DE/DX =   -0.0001              !
 ! D23   D(9,2,4,7)           -167.5981         -DE/DX =   -0.0001              !
 ! D24   D(9,2,4,8)              0.4649         -DE/DX =   -0.0002              !
 ! D25   D(10,2,4,3)           -96.4334         -DE/DX =    0.0001              !
 ! D26   D(10,2,4,7)            -0.4649         -DE/DX =    0.0002              !
 ! D27   D(10,2,4,8)           167.5981         -DE/DX =    0.0001              !
 ! D28   D(1,3,4,2)              0.0            -DE/DX =    0.0                 !
 ! D29   D(1,3,4,7)           -119.3123         -DE/DX =    0.0                 !
 ! D30   D(1,3,4,8)            119.3123         -DE/DX =    0.0                 !
 ! D31   D(5,3,4,2)            121.516          -DE/DX =    0.0                 !
 ! D32   D(5,3,4,7)              2.2037         -DE/DX =    0.0                 !
 ! D33   D(5,3,4,8)           -119.1717         -DE/DX =    0.0                 !
 ! D34   D(6,3,4,2)           -121.516          -DE/DX =    0.0                 !
 ! D35   D(6,3,4,7)            119.1717         -DE/DX =    0.0                 !
 ! D36   D(6,3,4,8)             -2.2037         -DE/DX =    0.0                 !
 --------------------------------------------------------------------------------
 Lowest energy point so far.  Saving SCF results.
 GradGradGradGradGradGradGradGradGradGradGradGradGradGradGradGradGradGrad

 Summary of Optimized Potential Surface Scan
                           1         2
     Eigenvalues --  -164.06473-164.06618
           R1           2.40295   2.40295
           R2           1.41934   1.41485
           R3           1.19454   1.19526
           R4           1.19454   1.19526
           R5           1.42191   1.41480
           R6           1.00532   1.00559
           R7           1.00532   1.00559
           R8           2.30295   2.40295
           R9           1.00581   1.00566
           R10          1.00581   1.00566
           R11          1.19609   1.19510
           R12          1.19609   1.19510
           A1          96.87550  99.06509
           A2          91.82558  90.86634
           A3          91.82558  90.86634
           A4         118.71620 118.72865
           A5         118.71620 118.72865
           A6         121.47229 121.39935
           A7          79.05607  80.93469
           A8         101.45581 100.25790
           A9         101.45581 100.25790
           A10        122.53497 122.57986
           A11        122.53497 122.57986
           A12        113.71498 113.71961
           A13         82.79896  80.93382
           A14        122.30657 122.45928
           A15        122.30657 122.45928
           A16        100.76591 100.91037
           A17        100.76591 100.91037
           A18        113.55093 113.66714
           A19        101.26947  99.06640
           A20        118.48882 118.76172
           A21        118.48882 118.76172
           A22         91.65419  90.81317
           A23         91.65419  90.81317
           A24        120.92895 121.35485
           D1           0.00000   0.00000
           D2        -121.31385-121.68631
           D3         121.31385 121.68631
           D4         119.21189 119.28865
           D5          -2.10196  -2.39766
           D6        -119.47426-119.02504
           D7        -119.21189-119.28865
           D8         119.47426 119.02504
           D9           2.10196   2.39766
           D10          0.00000   0.00000
           D11        -98.21406 -97.21878
           D12         98.21406  97.21878
           D13        -95.89163 -96.02225
           D14        165.89430 166.75897
           D15          2.32243   1.19653
           D16         95.89163  96.02225
           D17         -2.32243  -1.19653
           D18       -165.89430-166.75897
           D19          0.00000   0.00000
           D20         98.14229  95.96847
           D21        -98.14229 -95.96847
           D22         96.69561  96.43340
           D23       -165.16210-167.59813
           D24         -1.44668   0.46492
           D25        -96.69561 -96.43340
           D26          1.44668  -0.46492
           D27        165.16210 167.59813
           D28          0.00000   0.00000
           D29       -119.49334-119.31230
           D30        119.49334 119.31230
           D31        121.62287 121.51600
           D32          2.12953   2.20370
           D33       -118.88379-119.17170
           D34       -121.62287-121.51600
           D35        118.88379 119.17170
           D36         -2.12953  -2.20370
 Largest change from initial coordinates is atom    5       0.054 Angstoms.
 Leave Link  103 at Thu Mar  9 15:24:25 2017, MaxMem=  1127874560 cpu:         0.1
 (Enter /share/apps/g09RelE.01/g09/l202.exe)
                          Input orientation:                          
 ---------------------------------------------------------------------
 Center     Atomic      Atomic             Coordinates (Angstroms)
 Number     Number       Type             X           Y           Z
 ---------------------------------------------------------------------
      1          5           0        0.030483    1.293141    0.000000
      2          7           0       -1.311912   -0.699881    0.000000
      3          7           0        1.313842    0.697506    0.000000
      4          5           0       -0.028592   -1.295492    0.000000
      5          1           0        1.848309    0.567001    0.841823
      6          1           0        1.848309    0.567001   -0.841823
      7          1           0        0.447152   -1.636391    1.041982
      8          1           0        0.447152   -1.636391   -1.041982
      9          1           0       -1.843048   -0.558044   -0.842020
     10          1           0       -1.843048   -0.558044    0.842020
     11          1           0       -0.444347    1.634751   -1.042346
     12          1           0       -0.444347    1.634751    1.042346
 ---------------------------------------------------------------------
                    Distance matrix (angstroms):
                    1          2          3          4          5
     1  B    0.000000
     2  N    2.402949   0.000000
     3  N    1.414847   2.974437   0.000000
     4  B    2.589308   1.414802   2.402951   0.000000
     5  H    2.130830   3.507228   1.005660   2.774942   0.000000
     6  H    2.130830   3.507228   1.005660   2.774942   1.683646
     7  H    3.137117   2.248797   2.698881   1.195103   2.618824
     8  H    3.137117   2.248797   2.698881   1.195103   3.219767
     9  H    2.765141   1.005594   3.500194   2.131919   4.210364
    10  H    2.765141   1.005594   3.500194   2.131919   3.858994
    11  H    1.195259   2.699937   2.248586   3.137780   3.153800
    12  H    1.195259   2.699937   2.248586   3.137780   2.537040
                    6          7          8          9         10
     6  H    0.000000
     7  H    3.219767   0.000000
     8  H    2.618824   2.083965   0.000000
     9  H    3.858994   3.155521   2.539258   0.000000
    10  H    4.210364   2.539258   3.155521   1.684039   0.000000
    11  H    2.537040   3.979895   3.390449   2.608610   3.211783
    12  H    3.153800   3.390449   3.979895   3.211783   2.608610
                   11         12
    11  H    0.000000
    12  H    2.084691   0.000000
 Stoichiometry    B2H8N2
 Framework group  CS[SG(B2N2),X(H8)]
 Deg. of freedom    17
 Full point group                 CS      NOp   2
 RotChk:  IX=3 Diff= 7.85D-17
 Largest Abelian subgroup         CS      NOp   2
 Largest concise Abelian subgroup CS      NOp   2
                         Standard orientation:                         
 ---------------------------------------------------------------------
 Center     Atomic      Atomic             Coordinates (Angstroms)
 Number     Number       Type             X           Y           Z
 ---------------------------------------------------------------------
      1          5           0        0.000000   -1.293902    0.000000
      2          7           0        1.296980    0.728969    0.000000
      3          7           0       -1.296501   -0.727442    0.000000
      4          5           0        0.000519    1.295406    0.000000
      5          1           0       -1.833782   -0.609056    0.841823
      6          1           0       -1.833782   -0.609056   -0.841823
      7          1           0       -0.482813    1.625459    1.041982
      8          1           0       -0.482813    1.625459   -1.041982
      9          1           0        1.831188    0.599179   -0.842020
     10          1           0        1.831188    0.599179    0.842020
     11          1           0        0.482434   -1.624686   -1.042346
     12          1           0        0.482434   -1.624686    1.042346
 ---------------------------------------------------------------------
 Rotational constants (GHZ):     11.9816035      5.1708352      4.0287170
 Leave Link  202 at Thu Mar  9 15:24:25 2017, MaxMem=  1127874560 cpu:         0.0
 (Enter /share/apps/g09RelE.01/g09/l601.exe)
 Copying SCF densities to generalized density rwf, IOpCl= 0 IROHF=0.

 **********************************************************************

            Population analysis using the SCF density.

 **********************************************************************

 Orbital symmetries:
       Occupied  (A') (A') (A') (A') (A') (A') (A') (A') (A") (A")
                 (A') (A') (A') (A") (A") (A')
       Virtual   (A') (A') (A') (A') (A") (A") (A') (A') (A") (A')
                 (A") (A') (A') (A") (A') (A") (A') (A') (A') (A")
                 (A") (A') (A') (A') (A') (A') (A") (A") (A') (A')
                 (A") (A") (A') (A') (A') (A") (A') (A') (A") (A')
                 (A") (A') (A") (A') (A") (A") (A') (A') (A') (A")
                 (A") (A") (A') (A") (A') (A') (A') (A") (A") (A')
                 (A') (A") (A") (A') (A') (A') (A') (A') (A") (A")
                 (A') (A') (A') (A') (A") (A") (A") (A') (A") (A')
                 (A') (A") (A") (A') (A') (A') (A') (A") (A") (A')
                 (A') (A') (A") (A") (A') (A') (A') (A') (A") (A")
                 (A') (A') (A') (A')
 The electronic state is 1-A'.
 Alpha  occ. eigenvalues --  -14.41773 -14.41772  -6.83798  -6.83771  -0.96926
 Alpha  occ. eigenvalues --   -0.95592  -0.62071  -0.60518  -0.60094  -0.58807
 Alpha  occ. eigenvalues --   -0.47796  -0.47779  -0.41837  -0.40143  -0.39826
 Alpha  occ. eigenvalues --   -0.33000
 Alpha virt. eigenvalues --    0.08289   0.11051   0.14367   0.14951   0.15302
 Alpha virt. eigenvalues --    0.19516   0.20610   0.20870   0.23675   0.24466
 Alpha virt. eigenvalues --    0.27315   0.28327   0.34119   0.34463   0.39008
 Alpha virt. eigenvalues --    0.39451   0.46039   0.47456   0.50954   0.52428
 Alpha virt. eigenvalues --    0.55614   0.55705   0.56185   0.60148   0.63362
 Alpha virt. eigenvalues --    0.66175   0.68455   0.70073   0.78217   0.78753
 Alpha virt. eigenvalues --    0.79953   0.83345   0.83822   0.91491   0.95068
 Alpha virt. eigenvalues --    0.98943   1.00192   1.00546   1.01814   1.13090
 Alpha virt. eigenvalues --    1.23001   1.24245   1.25752   1.30278   1.31694
 Alpha virt. eigenvalues --    1.33473   1.39543   1.47032   1.64309   1.67522
 Alpha virt. eigenvalues --    1.67578   1.69866   1.72909   1.73764   1.74609
 Alpha virt. eigenvalues --    1.78628   1.81462   1.81645   1.89236   1.92365
 Alpha virt. eigenvalues --    2.00881   2.02432   2.02575   2.06673   2.08785
 Alpha virt. eigenvalues --    2.11599   2.14991   2.17789   2.18988   2.20421
 Alpha virt. eigenvalues --    2.28976   2.31832   2.48034   2.51674   2.53151
 Alpha virt. eigenvalues --    2.56979   2.59905   2.60001   2.61385   2.63343
 Alpha virt. eigenvalues --    2.63798   2.75571   2.76004   2.82430   2.82508
 Alpha virt. eigenvalues --    2.92467   2.94890   2.98756   3.01473   3.03626
 Alpha virt. eigenvalues --    3.11205   3.23308   3.33092   3.34419   3.96367
 Alpha virt. eigenvalues --    4.00726   4.72954   4.82904   4.86793   4.87256
 Alpha virt. eigenvalues --   14.78071  14.79071  35.73071  35.75657
          Condensed to atoms (all electrons):
               1          2          3          4          5          6
     1  B    3.583541   0.036382   0.455112  -0.000314  -0.034547  -0.034547
     2  N    0.036382   6.340826  -0.031414   0.455648   0.000526   0.000526
     3  N    0.455112  -0.031414   6.341749   0.035790   0.376906   0.376906
     4  B   -0.000314   0.455648   0.035790   3.581058  -0.002113  -0.002113
     5  H   -0.034547   0.000526   0.376906  -0.002113   0.466037  -0.034795
     6  H   -0.034547   0.000526   0.376906  -0.002113  -0.034795   0.466037
     7  H   -0.004938  -0.023068  -0.009683   0.436477  -0.001285   0.000700
     8  H   -0.004938  -0.023068  -0.009683   0.436477   0.000700  -0.001285
     9  H   -0.002189   0.376917   0.000519  -0.034507  -0.000044   0.000009
    10  H   -0.002189   0.376917   0.000519  -0.034507   0.000009  -0.000044
    11  H    0.436556  -0.009775  -0.023149  -0.004920   0.006345  -0.010475
    12  H    0.436556  -0.009775  -0.023149  -0.004920  -0.010475   0.006345
               7          8          9         10         11         12
     1  B   -0.004938  -0.004938  -0.002189  -0.002189   0.436556   0.436556
     2  N   -0.023068  -0.023068   0.376917   0.376917  -0.009775  -0.009775
     3  N   -0.009683  -0.009683   0.000519   0.000519  -0.023149  -0.023149
     4  B    0.436477   0.436477  -0.034507  -0.034507  -0.004920  -0.004920
     5  H   -0.001285   0.000700  -0.000044   0.000009   0.006345  -0.010475
     6  H    0.000700  -0.001285   0.000009  -0.000044  -0.010475   0.006345
     7  H    0.690806  -0.029469   0.006329  -0.010410  -0.000337   0.001028
     8  H   -0.029469   0.690806  -0.010410   0.006329   0.001028  -0.000337
     9  H    0.006329  -0.010410   0.465880  -0.034807  -0.001326   0.000702
    10  H   -0.010410   0.006329  -0.034807   0.465880   0.000702  -0.001326
    11  H   -0.000337   0.001028  -0.001326   0.000702   0.690396  -0.029333
    12  H    0.001028  -0.000337   0.000702  -0.001326  -0.029333   0.690396
 Mulliken charges:
               1
     1  B    0.135514
     2  N   -0.490642
     3  N   -0.490422
     4  B    0.137943
     5  H    0.232737
     6  H    0.232737
     7  H   -0.056150
     8  H   -0.056150
     9  H    0.232929
    10  H    0.232929
    11  H   -0.055712
    12  H   -0.055712
 Sum of Mulliken charges =  -0.00000
 Mulliken charges with hydrogens summed into heavy atoms:
               1
     1  B    0.024091
     2  N   -0.024785
     3  N   -0.024948
     4  B    0.025642
 Electronic spatial extent (au):  <R**2>=            350.1785
 Charge=             -0.0000 electrons
 Dipole moment (field-independent basis, Debye):
    X=             -0.0090    Y=             -0.0302    Z=             -0.0000  Tot=              0.0315
 Quadrupole moment (field-independent basis, Debye-Ang):
   XX=            -21.1046   YY=            -32.9708   ZZ=            -26.4569
   XY=              2.2880   XZ=             -0.0000   YZ=             -0.0000
 Traceless Quadrupole moment (field-independent basis, Debye-Ang):
   XX=              5.7395   YY=             -6.1267   ZZ=              0.3872
   XY=              2.2880   XZ=             -0.0000   YZ=             -0.0000
 Octapole moment (field-independent basis, Debye-Ang**2):
  XXX=             -0.1123  YYY=             -0.0502  ZZZ=             -0.0000  XYY=             -0.0892
  XXY=             -0.1562  XXZ=             -0.0000  XZZ=             -0.0074  YZZ=             -0.0327
  YYZ=              0.0000  XYZ=             -0.0000
 Hexadecapole moment (field-independent basis, Debye-Ang**3):
 XXXX=           -155.6523 YYYY=           -259.2897 ZZZZ=            -65.9732 XXXY=            -21.4278
 XXXZ=              0.0000 YYYX=            -27.7276 YYYZ=              0.0000 ZZZX=             -0.0000
 ZZZY=             -0.0000 XXYY=            -79.4001 XXZZ=            -29.1586 YYZZ=            -57.2026
 XXYZ=             -0.0000 YYXZ=             -0.0000 ZZXY=             -4.1153
 N-N= 1.126869638940D+02 E-N=-6.067240287912D+02  KE= 1.633867966397D+02
 Symmetry A'   KE= 1.550033073855D+02
 Symmetry A"   KE= 8.383489254196D+00
 No NMR shielding tensors so no spin-rotation constants.
 Leave Link  601 at Thu Mar  9 15:24:25 2017, MaxMem=  1127874560 cpu:         0.8
 (Enter /share/apps/g09RelE.01/g09/l9999.exe)
 1\1\GINC-COMPUTE-0-12\Scan\RwB97XD\6-311G(d,p)\B2H8N2\BERTA\09-Mar-201
 7\0\\#P RwB97XD/6-311G(d,p)int(grid=ultrafine) opt(modred,loose)\\AB2-
 mult-scan8_2.gjf\\0,1\B,0.0304827133,1.2931414709,0.0000000008\N,-1.31
 19124626,-0.6998811152,0.0000000008\N,1.313841967,0.6975063042,0.00000
 00008\B,-0.0285921498,-1.2954921637,0.0000000008\H,1.8483085562,0.5670
 005153,0.841822875\H,1.8483085562,0.5670005153,-0.8418228734\H,0.44715
 19432,-1.6363913218,1.0419823335\H,0.4471519432,-1.6363913218,-1.04198
 2332\H,-1.8430479405,-0.5580440712,-0.842019656\H,-1.8430479405,-0.558
 0440712,0.8420196575\H,-0.4443470939,1.6347511289,-1.0423455831\H,-0.4
 443470939,1.6347511289,1.0423455846\\Version=ES64L-G09RevE.01\State=1-
 A'\HF=-164.0647266,-164.0661773\RMSD=4.925e-09,7.949e-09\PG=CS [SG(B2N
 2),X(H8)]\\@


  DISAPPOINTMENT IS THE NURSE OF WISDOM.               
                              SIR BOYLE ROCHE                 
 Job cpu time:       0 days  0 hours  6 minutes 20.6 seconds.
 File lengths (MBytes):  RWF=      9 Int=      0 D2E=      0 Chk=      3 Scr=      1
 Normal termination of Gaussian 09 at Thu Mar  9 15:24:25 2017.
