compute-0-8.local
 Entering Gaussian System, Link 0=g09
 Initial command:
 /share/apps/g09RelE.01/g09/l1.exe "/state/partition1/berta/Gau-21822.inp" -scrdir="/state/partition1/berta/"
 Entering Link 1 = /share/apps/g09RelE.01/g09/l1.exe PID=     21823.
  
 Copyright (c) 1988,1990,1992,1993,1995,1998,2003,2009,2015,
            Gaussian, Inc.  All Rights Reserved.
  
 This is part of the Gaussian(R) 09 program.  It is based on
 the Gaussian(R) 03 system (copyright 2003, Gaussian, Inc.),
 the Gaussian(R) 98 system (copyright 1998, Gaussian, Inc.),
 the Gaussian(R) 94 system (copyright 1995, Gaussian, Inc.),
 the Gaussian 92(TM) system (copyright 1992, Gaussian, Inc.),
 the Gaussian 90(TM) system (copyright 1990, Gaussian, Inc.),
 the Gaussian 88(TM) system (copyright 1988, Gaussian, Inc.),
 the Gaussian 86(TM) system (copyright 1986, Carnegie Mellon
 University), and the Gaussian 82(TM) system (copyright 1983,
 Carnegie Mellon University). Gaussian is a federally registered
 trademark of Gaussian, Inc.
  
 This software contains proprietary and confidential information,
 including trade secrets, belonging to Gaussian, Inc.
  
 This software is provided under written license and may be
 used, copied, transmitted, or stored only in accord with that
 written license.
  
 The following legend is applicable only to US Government
 contracts under FAR:
  
                    RESTRICTED RIGHTS LEGEND
  
 Use, reproduction and disclosure by the US Government is
 subject to restrictions as set forth in subparagraphs (a)
 and (c) of the Commercial Computer Software - Restricted
 Rights clause in FAR 52.227-19.
  
 Gaussian, Inc.
 340 Quinnipiac St., Bldg. 40, Wallingford CT 06492
  
  
 ---------------------------------------------------------------
 Warning -- This program may not be used in any manner that
 competes with the business of Gaussian, Inc. or will provide
 assistance to any competitor of Gaussian, Inc.  The licensee
 of this program is prohibited from giving any competitor of
 Gaussian, Inc. access to this program.  By using this program,
 the user acknowledges that Gaussian, Inc. is engaged in the
 business of creating and licensing software in the field of
 computational chemistry and represents and warrants to the
 licensee that it is not a competitor of Gaussian, Inc. and that
 it will not use this program in any manner prohibited above.
 ---------------------------------------------------------------
  

 Cite this work as:
 Gaussian 09, Revision E.01,
 M. J. Frisch, G. W. Trucks, H. B. Schlegel, G. E. Scuseria, 
 M. A. Robb, J. R. Cheeseman, G. Scalmani, V. Barone, B. Mennucci, 
 G. A. Petersson, H. Nakatsuji, M. Caricato, X. Li, H. P. Hratchian, 
 A. F. Izmaylov, J. Bloino, G. Zheng, J. L. Sonnenberg, M. Hada, 
 M. Ehara, K. Toyota, R. Fukuda, J. Hasegawa, M. Ishida, T. Nakajima, 
 Y. Honda, O. Kitao, H. Nakai, T. Vreven, J. A. Montgomery, Jr., 
 J. E. Peralta, F. Ogliaro, M. Bearpark, J. J. Heyd, E. Brothers, 
 K. N. Kudin, V. N. Staroverov, T. Keith, R. Kobayashi, J. Normand, 
 K. Raghavachari, A. Rendell, J. C. Burant, S. S. Iyengar, J. Tomasi, 
 M. Cossi, N. Rega, J. M. Millam, M. Klene, J. E. Knox, J. B. Cross, 
 V. Bakken, C. Adamo, J. Jaramillo, R. Gomperts, R. E. Stratmann, 
 O. Yazyev, A. J. Austin, R. Cammi, C. Pomelli, J. W. Ochterski, 
 R. L. Martin, K. Morokuma, V. G. Zakrzewski, G. A. Voth, 
 P. Salvador, J. J. Dannenberg, S. Dapprich, A. D. Daniels, 
 O. Farkas, J. B. Foresman, J. V. Ortiz, J. Cioslowski, 
 and D. J. Fox, Gaussian, Inc., Wallingford CT, 2013.
 
 ******************************************
 Gaussian 09:  ES64L-G09RevE.01 30-Nov-2015
                 9-Mar-2017 
 ******************************************
 %chk=AB-AB-NHscan.chk
 %nproc=4
 Will use up to    4 processors via shared memory.
 %mem=8605MB
 -----------------------------------------------------------
 #P RwB97XD/6-311G(d,p)int(grid=ultrafine) opt(modred,loose)
 -----------------------------------------------------------
 1/7=-1,14=-1,18=120,19=15,26=4,38=1/1,3;
 2/9=110,12=2,17=6,18=5,40=1/2;
 3/5=4,6=6,7=101,11=2,16=1,25=1,30=1,71=1,74=-58,75=-5,116=1/1,2,3;
 4//1;
 5/5=2,38=5/2;
 6/7=2,8=2,9=2,10=2,28=1/1;
 7//1,2,3,16;
 1/7=-1,14=-1,18=20,19=15,26=4/3(2);
 2/9=110/2;
 99//99;
 2/9=110/2;
 3/5=4,6=6,7=101,11=2,16=1,25=1,30=1,71=1,74=-58,75=-5,116=1/1,2,3;
 4/5=5,16=3,69=1/1;
 5/5=2,38=5/2;
 7//1,2,3,16;
 1/7=-1,14=-1,18=20,19=15,26=4/3(-5);
 2/9=110/2;
 6/7=2,8=2,9=2,10=2,19=2,28=1/1;
 99/9=1/99;
 Leave Link    1 at Thu Mar  9 15:14:47 2017, MaxMem=  1127874560 cpu:         0.3
 (Enter /share/apps/g09RelE.01/g09/l101.exe)
 --------------------
 AB2-mult-scan7_1.gjf
 --------------------
 Symbolic Z-matrix:
 Charge =  0 Multiplicity = 1
 B                     0.       -1.24051   0. 
 N                     1.27845   0.55352   0. 
 N                    -1.27851  -0.55342   0. 
 B                    -0.00028   1.24078   0. 
 H                    -1.8348   -0.50975   0.83771 
 H                    -1.8348   -0.50975  -0.83771 
 H                    -0.40529   1.67176   1.03945 
 H                    -0.40529   1.67176  -1.03945 
 H                     1.83495   0.50974  -0.83759 
 H                     1.83495   0.50974   0.83759 
 H                     0.40607  -1.67279  -1.03861 
 H                     0.40607  -1.67279   1.03861 
 
 Add virtual bond connecting atoms N2         and B1         Dist= 4.16D+00.
 Add virtual bond connecting atoms B4         and N3         Dist= 4.16D+00.
 The following ModRedundant input section has been read:
 B       1       2 S   1 0.1000                                                
 B       3       4 F                                                           
 
 NAtoms=     12 NQM=       12 NQMF=       0 NMMI=      0 NMMIF=      0
                NMic=       0 NMicF=      0.
                    Isotopes and Nuclear Properties:
 (Nuclear quadrupole moments (NQMom) in fm**2, nuclear magnetic moments (NMagM)
  in nuclear magnetons)

  Atom         1           2           3           4           5           6           7           8           9          10
 IAtWgt=          11          14          14          11           1           1           1           1           1           1
 AtmWgt=  11.0093053  14.0030740  14.0030740  11.0093053   1.0078250   1.0078250   1.0078250   1.0078250   1.0078250   1.0078250
 NucSpn=           3           2           2           3           1           1           1           1           1           1
 AtZEff=   0.0000000   0.0000000   0.0000000   0.0000000   0.0000000   0.0000000   0.0000000   0.0000000   0.0000000   0.0000000
 NQMom=    4.0590000   2.0440000   2.0440000   4.0590000   0.0000000   0.0000000   0.0000000   0.0000000   0.0000000   0.0000000
 NMagM=    2.6886370   0.4037610   0.4037610   2.6886370   2.7928460   2.7928460   2.7928460   2.7928460   2.7928460   2.7928460
 AtZNuc=   5.0000000   7.0000000   7.0000000   5.0000000   1.0000000   1.0000000   1.0000000   1.0000000   1.0000000   1.0000000

  Atom        11          12
 IAtWgt=           1           1
 AtmWgt=   1.0078250   1.0078250
 NucSpn=           1           1
 AtZEff=   0.0000000   0.0000000
 NQMom=    0.0000000   0.0000000
 NMagM=    2.7928460   2.7928460
 AtZNuc=   1.0000000   1.0000000
 Leave Link  101 at Thu Mar  9 15:14:48 2017, MaxMem=  1127874560 cpu:         1.5
 (Enter /share/apps/g09RelE.01/g09/l103.exe)

 GradGradGradGradGradGradGradGradGradGradGradGradGradGradGradGradGradGrad
 Berny optimization.
 Initialization pass.
                           ----------------------------
                           !    Initial Parameters    !
                           ! (Angstroms and Degrees)  !
 --------------------------                            --------------------------
 ! Name  Definition              Value          Derivative Info.                !
 --------------------------------------------------------------------------------
 ! R1    R(1,2)                  2.2029         Scan                            !
 ! R2    R(1,3)                  1.4514         estimate D2E/DX2                !
 ! R3    R(1,11)                 1.196          estimate D2E/DX2                !
 ! R4    R(1,12)                 1.196          estimate D2E/DX2                !
 ! R5    R(2,4)                  1.4517         estimate D2E/DX2                !
 ! R6    R(2,9)                  1.0066         estimate D2E/DX2                !
 ! R7    R(2,10)                 1.0066         estimate D2E/DX2                !
 ! R8    R(3,4)                  2.203          Frozen                          !
 ! R9    R(3,5)                  1.0065         estimate D2E/DX2                !
 ! R10   R(3,6)                  1.0065         estimate D2E/DX2                !
 ! R11   R(4,7)                  1.1959         estimate D2E/DX2                !
 ! R12   R(4,8)                  1.1959         estimate D2E/DX2                !
 ! A1    A(2,1,3)               97.2195         estimate D2E/DX2                !
 ! A2    A(2,1,11)              95.5844         estimate D2E/DX2                !
 ! A3    A(2,1,12)              95.5844         estimate D2E/DX2                !
 ! A4    A(3,1,11)             118.0447         estimate D2E/DX2                !
 ! A5    A(3,1,12)             118.0447         estimate D2E/DX2                !
 ! A6    A(11,1,12)            120.5437         estimate D2E/DX2                !
 ! A7    A(1,2,4)               82.7819         estimate D2E/DX2                !
 ! A8    A(1,2,9)              106.5844         estimate D2E/DX2                !
 ! A9    A(1,2,10)             106.5844         estimate D2E/DX2                !
 ! A10   A(4,2,9)              120.5031         estimate D2E/DX2                !
 ! A11   A(4,2,10)             120.5031         estimate D2E/DX2                !
 ! A12   A(9,2,10)             112.6364         estimate D2E/DX2                !
 ! A13   A(1,3,4)               82.7875         estimate D2E/DX2                !
 ! A14   A(1,3,5)              120.4883         estimate D2E/DX2                !
 ! A15   A(1,3,6)              120.4883         estimate D2E/DX2                !
 ! A16   A(4,3,5)              106.5794         estimate D2E/DX2                !
 ! A17   A(4,3,6)              106.5794         estimate D2E/DX2                !
 ! A18   A(5,3,6)              112.6648         estimate D2E/DX2                !
 ! A19   A(2,4,3)               97.2111         estimate D2E/DX2                !
 ! A20   A(2,4,7)              117.9636         estimate D2E/DX2                !
 ! A21   A(2,4,8)              117.9636         estimate D2E/DX2                !
 ! A22   A(3,4,7)               95.5671         estimate D2E/DX2                !
 ! A23   A(3,4,8)               95.5671         estimate D2E/DX2                !
 ! A24   A(7,4,8)              120.7222         estimate D2E/DX2                !
 ! D1    D(3,1,2,4)              0.0            estimate D2E/DX2                !
 ! D2    D(3,1,2,9)           -119.7442         estimate D2E/DX2                !
 ! D3    D(3,1,2,10)           119.7442         estimate D2E/DX2                !
 ! D4    D(11,1,2,4)           119.2461         estimate D2E/DX2                !
 ! D5    D(11,1,2,9)            -0.4981         estimate D2E/DX2                !
 ! D6    D(11,1,2,10)         -121.0097         estimate D2E/DX2                !
 ! D7    D(12,1,2,4)          -119.2461         estimate D2E/DX2                !
 ! D8    D(12,1,2,9)           121.0097         estimate D2E/DX2                !
 ! D9    D(12,1,2,10)            0.4981         estimate D2E/DX2                !
 ! D10   D(2,1,3,4)              0.0            estimate D2E/DX2                !
 ! D11   D(2,1,3,5)           -105.0261         estimate D2E/DX2                !
 ! D12   D(2,1,3,6)            105.0261         estimate D2E/DX2                !
 ! D13   D(11,1,3,4)          -100.2893         estimate D2E/DX2                !
 ! D14   D(11,1,3,5)           154.6845         estimate D2E/DX2                !
 ! D15   D(11,1,3,6)             4.7368         estimate D2E/DX2                !
 ! D16   D(12,1,3,4)           100.2893         estimate D2E/DX2                !
 ! D17   D(12,1,3,5)            -4.7368         estimate D2E/DX2                !
 ! D18   D(12,1,3,6)          -154.6845         estimate D2E/DX2                !
 ! D19   D(1,2,4,3)              0.0            estimate D2E/DX2                !
 ! D20   D(1,2,4,7)            100.2464         estimate D2E/DX2                !
 ! D21   D(1,2,4,8)           -100.2464         estimate D2E/DX2                !
 ! D22   D(9,2,4,3)            105.0291         estimate D2E/DX2                !
 ! D23   D(9,2,4,7)           -154.7244         estimate D2E/DX2                !
 ! D24   D(9,2,4,8)              4.7827         estimate D2E/DX2                !
 ! D25   D(10,2,4,3)          -105.0291         estimate D2E/DX2                !
 ! D26   D(10,2,4,7)            -4.7827         estimate D2E/DX2                !
 ! D27   D(10,2,4,8)           154.7244         estimate D2E/DX2                !
 ! D28   D(1,3,4,2)              0.0            estimate D2E/DX2                !
 ! D29   D(1,3,4,7)           -119.1581         estimate D2E/DX2                !
 ! D30   D(1,3,4,8)            119.1581         estimate D2E/DX2                !
 ! D31   D(5,3,4,2)            119.7302         estimate D2E/DX2                !
 ! D32   D(5,3,4,7)              0.5721         estimate D2E/DX2                !
 ! D33   D(5,3,4,8)           -121.1117         estimate D2E/DX2                !
 ! D34   D(6,3,4,2)           -119.7302         estimate D2E/DX2                !
 ! D35   D(6,3,4,7)            121.1117         estimate D2E/DX2                !
 ! D36   D(6,3,4,8)             -0.5721         estimate D2E/DX2                !
 --------------------------------------------------------------------------------
 Trust Radius=3.00D-01 FncErr=1.00D-07 GrdErr=1.00D-06
 Number of optimizations in scan=   2
 Number of steps in this run=     82 maximum allowed number of steps=    100.
 GradGradGradGradGradGradGradGradGradGradGradGradGradGradGradGradGradGrad

 Leave Link  103 at Thu Mar  9 15:14:48 2017, MaxMem=  1127874560 cpu:         0.0
 (Enter /share/apps/g09RelE.01/g09/l202.exe)
                          Input orientation:                          
 ---------------------------------------------------------------------
 Center     Atomic      Atomic             Coordinates (Angstroms)
 Number     Number       Type             X           Y           Z
 ---------------------------------------------------------------------
      1          5           0        0.000000   -1.240513    0.000000
      2          7           0        1.278445    0.553523    0.000000
      3          7           0       -1.278509   -0.553415    0.000000
      4          5           0       -0.000281    1.240777    0.000000
      5          1           0       -1.834795   -0.509745    0.837708
      6          1           0       -1.834795   -0.509745   -0.837708
      7          1           0       -0.405289    1.671764    1.039450
      8          1           0       -0.405289    1.671764   -1.039450
      9          1           0        1.834946    0.509741   -0.837592
     10          1           0        1.834946    0.509741    0.837592
     11          1           0        0.406065   -1.672792   -1.038609
     12          1           0        0.406065   -1.672792    1.038609
 ---------------------------------------------------------------------
                    Distance matrix (angstroms):
                    1          2          3          4          5
     1  B    0.000000
     2  N    2.202950   0.000000
     3  N    1.451444   2.786274   0.000000
     4  B    2.481290   1.451709   2.202951   0.000000
     5  H    2.145285   3.394784   1.006537   2.670491   0.000000
     6  H    2.145285   3.394784   1.006537   2.670491   1.675416
     7  H    3.118665   2.272857   2.606605   1.195925   2.615945
     8  H    3.118665   2.272857   2.606605   1.195925   3.213439
     9  H    2.670576   1.006564   3.394917   2.145701   4.160887
    10  H    2.670576   1.006564   3.394917   2.145701   3.808720
    11  H    1.196019   2.606959   2.273654   3.119729   3.145584
    12  H    1.196019   2.606959   2.273654   3.119729   2.532685
                    6          7          8          9         10
     6  H    0.000000
     7  H    3.213439   0.000000
     8  H    2.615945   2.078900   0.000000
     9  H    3.808720   3.145193   2.531738   0.000000
    10  H    4.160887   2.531738   3.145193   1.675184   0.000000
    11  H    2.532685   4.020283   3.441562   2.616402   3.213298
    12  H    3.145584   3.441562   4.020283   3.213298   2.616402
                   11         12
    11  H    0.000000
    12  H    2.077218   0.000000
 Stoichiometry    B2H8N2
 Framework group  CS[SG(B2N2),X(H8)]
 Deg. of freedom    17
 Full point group                 CS      NOp   2
 Largest Abelian subgroup         CS      NOp   2
 Largest concise Abelian subgroup CS      NOp   2
                         Standard orientation:                         
 ---------------------------------------------------------------------
 Center     Atomic      Atomic             Coordinates (Angstroms)
 Number     Number       Type             X           Y           Z
 ---------------------------------------------------------------------
      1          5           0        0.000000    1.240513    0.000000
      2          7           0       -1.278445   -0.553523    0.000000
      3          7           0        1.278509    0.553415    0.000000
      4          5           0        0.000281   -1.240777    0.000000
      5          1           0        1.834795    0.509745    0.837708
      6          1           0        1.834795    0.509745   -0.837708
      7          1           0        0.405289   -1.671764    1.039450
      8          1           0        0.405289   -1.671764   -1.039450
      9          1           0       -1.834946   -0.509741   -0.837592
     10          1           0       -1.834946   -0.509741    0.837592
     11          1           0       -0.406065    1.672792   -1.038609
     12          1           0       -0.406065    1.672792    1.038609
 ---------------------------------------------------------------------
 Rotational constants (GHZ):     11.5990833      5.9043754      4.4021351
 Leave Link  202 at Thu Mar  9 15:14:48 2017, MaxMem=  1127874560 cpu:         0.0
 (Enter /share/apps/g09RelE.01/g09/l301.exe)
 Standard basis: 6-311G(d,p) (5D, 7F)
 Ernie: Thresh=  0.10000D-02 Tol=  0.10000D-05 Strict=F.
 There are    80 symmetry adapted cartesian basis functions of A'  symmetry.
 There are    44 symmetry adapted cartesian basis functions of A"  symmetry.
 There are    76 symmetry adapted basis functions of A'  symmetry.
 There are    44 symmetry adapted basis functions of A"  symmetry.
   120 basis functions,   192 primitive gaussians,   124 cartesian basis functions
    16 alpha electrons       16 beta electrons
       nuclear repulsion energy       114.6176635391 Hartrees.
 IExCor= 4639 DFT=T Ex+Corr=wB97XD ExCW=0 ScaHFX=  1.000000
 ScaDFX=  1.000000  1.000000  1.000000  1.000000 ScalE2=  1.000000  1.000000
 IRadAn=      5 IRanWt=     -1 IRanGd=            0 ICorTp=0 IEmpDi=121
  HFx wShort=  0.000000 wLong=  0.200000 cFull=  0.222036 cShort=  0.000000 cLong=  0.777964
  DFx wShort=  0.000000 wLong=  0.200000 cFull=  0.000000 cShort=  0.000000 cLong=  1.000000
 NAtoms=   12 NActive=   12 NUniq=    8 SFac= 2.25D+00 NAtFMM=   60 NAOKFM=F Big=F
 Integral buffers will be    131072 words long.
 Raffenetti 2 integral format.
 Two-electron integral symmetry is turned on.
 R6Disp:  Grimme-D2 Dispersion energy=       -0.0056210420 Hartrees.
 Nuclear repulsion after empirical dispersion term =      114.6120424972 Hartrees.
 Leave Link  301 at Thu Mar  9 15:14:48 2017, MaxMem=  1127874560 cpu:         0.3
 (Enter /share/apps/g09RelE.01/g09/l302.exe)
 NPDir=0 NMtPBC=     1 NCelOv=     1 NCel=       1 NClECP=     1 NCelD=      1
         NCelK=      1 NCelE2=     1 NClLst=     1 CellRange=     0.0.
 One-electron integrals computed using PRISM.
 One-electron integral symmetry used in STVInt
 NBasis=   120 RedAO= T EigKep=  5.91D-03  NBF=    76    44
 NBsUse=   120 1.00D-06 EigRej= -1.00D+00 NBFU=    76    44
 Precomputing XC quadrature grid using
 IXCGrd= 4 IRadAn=           5 IRanWt=          -1 IRanGd=           0 AccXCQ= 0.00D+00.
 Generated NRdTot=       0 NPtTot=           0 NUsed=           0 NTot=          32
 NSgBfM=   124   124   124   124   124 MxSgAt=    12 MxSgA2=    12.
 Leave Link  302 at Thu Mar  9 15:14:48 2017, MaxMem=  1127874560 cpu:         1.4
 (Enter /share/apps/g09RelE.01/g09/l303.exe)
 DipDrv:  MaxL=1.
 Leave Link  303 at Thu Mar  9 15:14:48 2017, MaxMem=  1127874560 cpu:         0.2
 (Enter /share/apps/g09RelE.01/g09/l401.exe)
 ExpMin= 9.89D-02 ExpMax= 6.29D+03 ExpMxC= 9.49D+02 IAcc=3 IRadAn=         5 AccDes= 0.00D+00
 Harris functional with IExCor= 4639 and IRadAn=       5 diagonalized for initial guess.
 HarFok:  IExCor= 4639 AccDes= 0.00D+00 IRadAn=         5 IDoV= 1 UseB2=F ITyADJ=14
 ICtDFT=  3500011 ScaDFX=  1.000000  1.000000  1.000000  1.000000
 FoFCou: FMM=F IPFlag=           0 FMFlag=      100000 FMFlg1=           0
         NFxFlg=           0 DoJE=T BraDBF=F KetDBF=T FulRan=T
         wScrn=  0.000000 ICntrl=     500 IOpCl=  0 I1Cent=   200000004 NGrid=           0
         NMat0=    1 NMatS0=      1 NMatT0=    0 NMatD0=    1 NMtDS0=    0 NMtDT0=    0
 Petite list used in FoFCou.
 Harris En= -156.187967772968    
 JPrj=0 DoOrth=F DoCkMO=F.
 Initial guess orbital symmetries:
       Occupied  (A') (A') (A') (A') (A') (A') (A') (A') (A") (A")
                 (A') (A') (A') (A") (A") (A')
       Virtual   (A') (A') (A') (A') (A") (A') (A") (A') (A") (A')
                 (A') (A") (A') (A") (A') (A") (A') (A') (A') (A")
                 (A') (A') (A") (A') (A') (A") (A') (A") (A") (A')
                 (A') (A") (A') (A') (A') (A") (A') (A") (A') (A')
                 (A") (A') (A") (A') (A") (A') (A") (A') (A') (A")
                 (A") (A') (A") (A') (A') (A") (A") (A') (A") (A')
                 (A') (A") (A') (A") (A') (A') (A") (A') (A') (A")
                 (A') (A') (A') (A') (A") (A") (A') (A") (A") (A')
                 (A') (A") (A") (A') (A') (A') (A') (A") (A') (A')
                 (A") (A') (A") (A") (A') (A') (A') (A') (A") (A")
                 (A') (A') (A') (A')
 The electronic state of the initial guess is 1-A'.
 Leave Link  401 at Thu Mar  9 15:14:50 2017, MaxMem=  1127874560 cpu:         5.2
 (Enter /share/apps/g09RelE.01/g09/l502.exe)
 Closed shell SCF:
 Using DIIS extrapolation, IDIIS=  1040.
 Integral symmetry usage will be decided dynamically.
 Keep R1 ints in memory in symmetry-blocked form, NReq=79321962.
 IVT=       66538 IEndB=       66538 NGot=  1127874560 MDV=  1114529905
 LenX=  1114529905 LenY=  1114514088
 Requested convergence on RMS density matrix=1.00D-08 within 128 cycles.
 Requested convergence on MAX density matrix=1.00D-06.
 Requested convergence on             energy=1.00D-06.
 No special actions if energy rises.
 FoFCou: FMM=F IPFlag=           0 FMFlag=           0 FMFlg1=           0
         NFxFlg=           0 DoJE=F BraDBF=F KetDBF=F FulRan=T
         wScrn=  0.000000 ICntrl=     600 IOpCl=  0 I1Cent=           0 NGrid=           0
         NMat0=    1 NMatS0=   7260 NMatT0=    0 NMatD0=    1 NMtDS0=    0 NMtDT0=    0
 Petite list used in FoFCou.
 Integral accuracy reduced to 1.0D-05 until final iterations.

 Cycle   1  Pass 0  IDiag  1:
 E= -164.016543568412    
 DIIS: error= 9.80D-02 at cycle   1 NSaved=   1.
 NSaved= 1 IEnMin= 1 EnMin= -164.016543568412     IErMin= 1 ErrMin= 9.80D-02
 ErrMax= 9.80D-02  0.00D+00 EMaxC= 1.00D-01 BMatC= 3.44D-01 BMatP= 3.44D-01
 IDIUse=3 WtCom= 2.02D-02 WtEn= 9.80D-01
 Coeff-Com:  0.100D+01
 Coeff-En:   0.100D+01
 Coeff:      0.100D+01
 Gap=     0.431 Goal=   None    Shift=    0.000
 GapD=    0.431 DampG=2.000 DampE=0.500 DampFc=1.0000 IDamp=-1.
 RMSDP=1.56D-03 MaxDP=2.47D-02              OVMax= 7.81D-02

 Cycle   2  Pass 0  IDiag  1:
 E= -164.059974922693     Delta-E=       -0.043431354281 Rises=F Damp=F
 DIIS: error= 7.84D-03 at cycle   2 NSaved=   2.
 NSaved= 2 IEnMin= 2 EnMin= -164.059974922693     IErMin= 2 ErrMin= 7.84D-03
 ErrMax= 7.84D-03  0.00D+00 EMaxC= 1.00D-01 BMatC= 3.57D-03 BMatP= 3.44D-01
 IDIUse=3 WtCom= 9.22D-01 WtEn= 7.84D-02
 Coeff-Com:  0.539D-01 0.946D+00
 Coeff-En:   0.000D+00 0.100D+01
 Coeff:      0.497D-01 0.950D+00
 Gap=     0.406 Goal=   None    Shift=    0.000
 RMSDP=5.12D-04 MaxDP=1.78D-02 DE=-4.34D-02 OVMax= 1.59D-02

 Cycle   3  Pass 0  IDiag  1:
 E= -164.062291699288     Delta-E=       -0.002316776595 Rises=F Damp=F
 DIIS: error= 3.58D-03 at cycle   3 NSaved=   3.
 NSaved= 3 IEnMin= 3 EnMin= -164.062291699288     IErMin= 3 ErrMin= 3.58D-03
 ErrMax= 3.58D-03  0.00D+00 EMaxC= 1.00D-01 BMatC= 8.68D-04 BMatP= 3.57D-03
 IDIUse=3 WtCom= 9.64D-01 WtEn= 3.58D-02
 Coeff-Com:  0.144D-01 0.347D+00 0.639D+00
 Coeff-En:   0.000D+00 0.000D+00 0.100D+01
 Coeff:      0.139D-01 0.334D+00 0.652D+00
 Gap=     0.410 Goal=   None    Shift=    0.000
 RMSDP=1.78D-04 MaxDP=4.73D-03 DE=-2.32D-03 OVMax= 1.08D-02

 Cycle   4  Pass 0  IDiag  1:
 E= -164.063089799361     Delta-E=       -0.000798100073 Rises=F Damp=F
 DIIS: error= 6.23D-04 at cycle   4 NSaved=   4.
 NSaved= 4 IEnMin= 4 EnMin= -164.063089799361     IErMin= 4 ErrMin= 6.23D-04
 ErrMax= 6.23D-04  0.00D+00 EMaxC= 1.00D-01 BMatC= 3.29D-05 BMatP= 8.68D-04
 IDIUse=3 WtCom= 9.94D-01 WtEn= 6.23D-03
 Coeff-Com:  0.235D-02 0.537D-01 0.187D+00 0.757D+00
 Coeff-En:   0.000D+00 0.000D+00 0.000D+00 0.100D+01
 Coeff:      0.233D-02 0.534D-01 0.186D+00 0.758D+00
 Gap=     0.408 Goal=   None    Shift=    0.000
 RMSDP=3.46D-05 MaxDP=1.01D-03 DE=-7.98D-04 OVMax= 1.40D-03

 Cycle   5  Pass 0  IDiag  1:
 E= -164.063117618971     Delta-E=       -0.000027819610 Rises=F Damp=F
 DIIS: error= 3.01D-04 at cycle   5 NSaved=   5.
 NSaved= 5 IEnMin= 5 EnMin= -164.063117618971     IErMin= 5 ErrMin= 3.01D-04
 ErrMax= 3.01D-04  0.00D+00 EMaxC= 1.00D-01 BMatC= 4.46D-06 BMatP= 3.29D-05
 IDIUse=3 WtCom= 9.97D-01 WtEn= 3.01D-03
 Coeff-Com: -0.189D-02-0.394D-01-0.339D-01 0.262D+00 0.813D+00
 Coeff-En:   0.000D+00 0.000D+00 0.000D+00 0.000D+00 0.100D+01
 Coeff:     -0.189D-02-0.393D-01-0.338D-01 0.262D+00 0.813D+00
 Gap=     0.409 Goal=   None    Shift=    0.000
 RMSDP=1.98D-05 MaxDP=3.86D-04 DE=-2.78D-05 OVMax= 1.26D-03

 Cycle   6  Pass 0  IDiag  1:
 E= -164.063123737847     Delta-E=       -0.000006118876 Rises=F Damp=F
 DIIS: error= 3.54D-05 at cycle   6 NSaved=   6.
 NSaved= 6 IEnMin= 6 EnMin= -164.063123737847     IErMin= 6 ErrMin= 3.54D-05
 ErrMax= 3.54D-05  0.00D+00 EMaxC= 1.00D-01 BMatC= 1.14D-07 BMatP= 4.46D-06
 IDIUse=1 WtCom= 1.00D+00 WtEn= 0.00D+00
 Coeff-Com: -0.923D-04-0.268D-02-0.760D-02-0.570D-01-0.624D-02 0.107D+01
 Coeff:     -0.923D-04-0.268D-02-0.760D-02-0.570D-01-0.624D-02 0.107D+01
 Gap=     0.409 Goal=   None    Shift=    0.000
 RMSDP=5.73D-06 MaxDP=7.90D-05 DE=-6.12D-06 OVMax= 3.60D-04

 Initial convergence to 1.0D-05 achieved.  Increase integral accuracy.
 Cycle   7  Pass 1  IDiag  1:
 E= -164.063125709869     Delta-E=       -0.000001972022 Rises=F Damp=F
 DIIS: error= 4.14D-05 at cycle   1 NSaved=   1.
 NSaved= 1 IEnMin= 1 EnMin= -164.063125709869     IErMin= 1 ErrMin= 4.14D-05
 ErrMax= 4.14D-05  0.00D+00 EMaxC= 1.00D-01 BMatC= 1.54D-07 BMatP= 1.54D-07
 IDIUse=1 WtCom= 1.00D+00 WtEn= 0.00D+00
 Coeff-Com:  0.100D+01
 Coeff:      0.100D+01
 Gap=     0.409 Goal=   None    Shift=    0.000
 RMSDP=5.73D-06 MaxDP=7.90D-05 DE=-1.97D-06 OVMax= 1.32D-04

 Cycle   8  Pass 1  IDiag  1:
 E= -164.063125914627     Delta-E=       -0.000000204758 Rises=F Damp=F
 DIIS: error= 8.41D-06 at cycle   2 NSaved=   2.
 NSaved= 2 IEnMin= 2 EnMin= -164.063125914627     IErMin= 2 ErrMin= 8.41D-06
 ErrMax= 8.41D-06  0.00D+00 EMaxC= 1.00D-01 BMatC= 6.33D-09 BMatP= 1.54D-07
 IDIUse=1 WtCom= 1.00D+00 WtEn= 0.00D+00
 Coeff-Com: -0.602D-01 0.106D+01
 Coeff:     -0.602D-01 0.106D+01
 Gap=     0.409 Goal=   None    Shift=    0.000
 RMSDP=1.05D-06 MaxDP=1.25D-05 DE=-2.05D-07 OVMax= 4.36D-05

 Cycle   9  Pass 1  IDiag  1:
 E= -164.063125924214     Delta-E=       -0.000000009587 Rises=F Damp=F
 DIIS: error= 5.01D-06 at cycle   3 NSaved=   3.
 NSaved= 3 IEnMin= 3 EnMin= -164.063125924214     IErMin= 3 ErrMin= 5.01D-06
 ErrMax= 5.01D-06  0.00D+00 EMaxC= 1.00D-01 BMatC= 2.25D-09 BMatP= 6.33D-09
 IDIUse=1 WtCom= 1.00D+00 WtEn= 0.00D+00
 Coeff-Com: -0.521D-01 0.377D+00 0.675D+00
 Coeff:     -0.521D-01 0.377D+00 0.675D+00
 Gap=     0.409 Goal=   None    Shift=    0.000
 RMSDP=2.98D-07 MaxDP=8.70D-06 DE=-9.59D-09 OVMax= 1.45D-05

 Cycle  10  Pass 1  IDiag  1:
 E= -164.063125926255     Delta-E=       -0.000000002041 Rises=F Damp=F
 DIIS: error= 1.52D-06 at cycle   4 NSaved=   4.
 NSaved= 4 IEnMin= 4 EnMin= -164.063125926255     IErMin= 4 ErrMin= 1.52D-06
 ErrMax= 1.52D-06  0.00D+00 EMaxC= 1.00D-01 BMatC= 2.31D-10 BMatP= 2.25D-09
 IDIUse=1 WtCom= 1.00D+00 WtEn= 0.00D+00
 Coeff-Com: -0.108D-01-0.510D-02 0.222D+00 0.794D+00
 Coeff:     -0.108D-01-0.510D-02 0.222D+00 0.794D+00
 Gap=     0.409 Goal=   None    Shift=    0.000
 RMSDP=1.35D-07 MaxDP=2.40D-06 DE=-2.04D-09 OVMax= 9.12D-06

 Cycle  11  Pass 1  IDiag  1:
 E= -164.063125926571     Delta-E=       -0.000000000316 Rises=F Damp=F
 DIIS: error= 5.49D-07 at cycle   5 NSaved=   5.
 NSaved= 5 IEnMin= 5 EnMin= -164.063125926571     IErMin= 5 ErrMin= 5.49D-07
 ErrMax= 5.49D-07  0.00D+00 EMaxC= 1.00D-01 BMatC= 1.02D-11 BMatP= 2.31D-10
 IDIUse=1 WtCom= 1.00D+00 WtEn= 0.00D+00
 Coeff-Com:  0.387D-02-0.330D-01-0.438D-01 0.394D-01 0.103D+01
 Coeff:      0.387D-02-0.330D-01-0.438D-01 0.394D-01 0.103D+01
 Gap=     0.409 Goal=   None    Shift=    0.000
 RMSDP=5.65D-08 MaxDP=7.54D-07 DE=-3.16D-10 OVMax= 5.50D-06

 Cycle  12  Pass 1  IDiag  1:
 E= -164.063125926611     Delta-E=       -0.000000000040 Rises=F Damp=F
 DIIS: error= 1.96D-07 at cycle   6 NSaved=   6.
 NSaved= 6 IEnMin= 6 EnMin= -164.063125926611     IErMin= 6 ErrMin= 1.96D-07
 ErrMax= 1.96D-07  0.00D+00 EMaxC= 1.00D-01 BMatC= 1.10D-12 BMatP= 1.02D-11
 IDIUse=1 WtCom= 1.00D+00 WtEn= 0.00D+00
 Coeff-Com:  0.120D-02-0.347D-02-0.199D-01-0.553D-01 0.912D-01 0.986D+00
 Coeff:      0.120D-02-0.347D-02-0.199D-01-0.553D-01 0.912D-01 0.986D+00
 Gap=     0.409 Goal=   None    Shift=    0.000
 RMSDP=2.07D-08 MaxDP=2.84D-07 DE=-4.00D-11 OVMax= 2.13D-06

 Cycle  13  Pass 1  IDiag  1:
 E= -164.063125926615     Delta-E=       -0.000000000005 Rises=F Damp=F
 DIIS: error= 6.94D-08 at cycle   7 NSaved=   7.
 NSaved= 7 IEnMin= 7 EnMin= -164.063125926615     IErMin= 7 ErrMin= 6.94D-08
 ErrMax= 6.94D-08  0.00D+00 EMaxC= 1.00D-01 BMatC= 3.70D-13 BMatP= 1.10D-12
 IDIUse=1 WtCom= 1.00D+00 WtEn= 0.00D+00
 Coeff-Com: -0.567D-04 0.312D-02-0.980D-03-0.247D-01-0.113D+00 0.380D+00
 Coeff-Com:  0.755D+00
 Coeff:     -0.567D-04 0.312D-02-0.980D-03-0.247D-01-0.113D+00 0.380D+00
 Coeff:      0.755D+00
 Gap=     0.409 Goal=   None    Shift=    0.000
 RMSDP=7.68D-09 MaxDP=1.19D-07 DE=-4.66D-12 OVMax= 7.78D-07

 SCF Done:  E(RwB97XD) =  -164.063125927     A.U. after   13 cycles
            NFock= 13  Conv=0.77D-08     -V/T= 2.0047
 KE= 1.633014839453D+02 PE=-6.104794617808D+02 EE= 1.685028094117D+02
 Leave Link  502 at Thu Mar  9 15:15:07 2017, MaxMem=  1127874560 cpu:        65.9
 (Enter /share/apps/g09RelE.01/g09/l601.exe)
 Copying SCF densities to generalized density rwf, IOpCl= 0 IROHF=0.

 **********************************************************************

            Population analysis using the SCF density.

 **********************************************************************

 Orbital symmetries:
       Occupied  (A') (A') (A') (A') (A') (A') (A') (A") (A') (A")
                 (A') (A') (A') (A") (A") (A')
       Virtual   (A') (A') (A') (A") (A') (A") (A') (A') (A") (A')
                 (A") (A') (A") (A') (A') (A") (A') (A') (A') (A")
                 (A") (A') (A') (A') (A') (A") (A') (A") (A") (A')
                 (A') (A") (A') (A') (A') (A") (A") (A') (A') (A')
                 (A") (A") (A') (A') (A") (A") (A') (A') (A') (A")
                 (A") (A") (A') (A") (A') (A') (A") (A') (A") (A')
                 (A') (A') (A") (A") (A') (A") (A') (A') (A") (A')
                 (A') (A') (A') (A") (A') (A") (A') (A") (A") (A')
                 (A') (A") (A") (A') (A') (A') (A') (A") (A') (A')
                 (A") (A') (A") (A") (A') (A') (A') (A') (A") (A")
                 (A') (A') (A') (A')
 The electronic state is 1-A'.
 Alpha  occ. eigenvalues --  -14.41917 -14.41915  -6.84463  -6.84457  -0.97236
 Alpha  occ. eigenvalues --   -0.95276  -0.62456  -0.60029  -0.59826  -0.58357
 Alpha  occ. eigenvalues --   -0.47730  -0.47435  -0.42731  -0.40112  -0.39598
 Alpha  occ. eigenvalues --   -0.32334
 Alpha virt. eigenvalues --    0.08532   0.11001   0.14539   0.15275   0.16971
 Alpha virt. eigenvalues --    0.19395   0.20622   0.20888   0.23720   0.24676
 Alpha virt. eigenvalues --    0.26845   0.27783   0.33829   0.34494   0.39261
 Alpha virt. eigenvalues --    0.41194   0.45907   0.47584   0.49940   0.52691
 Alpha virt. eigenvalues --    0.54196   0.54652   0.55226   0.59582   0.62966
 Alpha virt. eigenvalues --    0.64625   0.65530   0.69820   0.77859   0.78113
 Alpha virt. eigenvalues --    0.78125   0.80179   0.82520   0.91276   0.93274
 Alpha virt. eigenvalues --    1.03713   1.04561   1.05383   1.06955   1.15759
 Alpha virt. eigenvalues --    1.20680   1.26469   1.26561   1.30548   1.32745
 Alpha virt. eigenvalues --    1.35879   1.39072   1.45821   1.64029   1.65316
 Alpha virt. eigenvalues --    1.70228   1.71145   1.71953   1.75432   1.77459
 Alpha virt. eigenvalues --    1.78321   1.83675   1.83985   1.89105   1.96075
 Alpha virt. eigenvalues --    1.99318   2.02531   2.02688   2.03484   2.10260
 Alpha virt. eigenvalues --    2.12122   2.12735   2.19319   2.20266   2.20344
 Alpha virt. eigenvalues --    2.29721   2.34701   2.51090   2.53247   2.53379
 Alpha virt. eigenvalues --    2.56770   2.57761   2.62533   2.63212   2.68533
 Alpha virt. eigenvalues --    2.68749   2.77330   2.77706   2.79945   2.81280
 Alpha virt. eigenvalues --    2.91327   2.92822   2.98945   3.04453   3.08047
 Alpha virt. eigenvalues --    3.08072   3.19116   3.28462   3.32064   3.97374
 Alpha virt. eigenvalues --    4.05138   4.66477   4.79778   4.86482   4.86580
 Alpha virt. eigenvalues --   14.72895  14.79913  35.71825  35.75514
          Condensed to atoms (all electrons):
               1          2          3          4          5          6
     1  B    3.582354   0.084831   0.397310  -0.013499  -0.033379  -0.033379
     2  N    0.084831   6.410864  -0.049797   0.397182   0.001620   0.001620
     3  N    0.397310  -0.049797   6.410612   0.084760   0.374871   0.374871
     4  B   -0.013499   0.397182   0.084760   3.582175  -0.003380  -0.003380
     5  H   -0.033379   0.001620   0.374871  -0.003380   0.463460  -0.033116
     6  H   -0.033379   0.001620   0.374871  -0.003380  -0.033116   0.463460
     7  H   -0.003229  -0.022493  -0.015934   0.435404  -0.002075   0.001248
     8  H   -0.003229  -0.022493  -0.015934   0.435404   0.001248  -0.002075
     9  H   -0.003388   0.374864   0.001618  -0.033354  -0.000137  -0.000005
    10  H   -0.003388   0.374864   0.001618  -0.033354  -0.000005  -0.000137
    11  H    0.435394  -0.015914  -0.022433  -0.003233   0.005748  -0.010125
    12  H    0.435394  -0.015914  -0.022433  -0.003233  -0.010125   0.005748
               7          8          9         10         11         12
     1  B   -0.003229  -0.003229  -0.003388  -0.003388   0.435394   0.435394
     2  N   -0.022493  -0.022493   0.374864   0.374864  -0.015914  -0.015914
     3  N   -0.015934  -0.015934   0.001618   0.001618  -0.022433  -0.022433
     4  B    0.435404   0.435404  -0.033354  -0.033354  -0.003233  -0.003233
     5  H   -0.002075   0.001248  -0.000137  -0.000005   0.005748  -0.010125
     6  H    0.001248  -0.002075  -0.000005  -0.000137  -0.010125   0.005748
     7  H    0.688467  -0.022816   0.005748  -0.010115  -0.000616   0.001217
     8  H   -0.022816   0.688467  -0.010115   0.005748   0.001217  -0.000616
     9  H    0.005748  -0.010115   0.463511  -0.033135  -0.002073   0.001248
    10  H   -0.010115   0.005748  -0.033135   0.463511   0.001248  -0.002073
    11  H   -0.000616   0.001217  -0.002073   0.001248   0.688633  -0.022994
    12  H    0.001217  -0.000616   0.001248  -0.002073  -0.022994   0.688633
 Mulliken charges:
               1
     1  B    0.158207
     2  N   -0.519234
     3  N   -0.519130
     4  B    0.158507
     5  H    0.235268
     6  H    0.235268
     7  H   -0.054808
     8  H   -0.054808
     9  H    0.235216
    10  H    0.235216
    11  H   -0.054852
    12  H   -0.054852
 Sum of Mulliken charges =   0.00000
 Mulliken charges with hydrogens summed into heavy atoms:
               1
     1  B    0.048504
     2  N   -0.048802
     3  N   -0.048593
     4  B    0.048891
 Electronic spatial extent (au):  <R**2>=            331.4070
 Charge=              0.0000 electrons
 Dipole moment (field-independent basis, Debye):
    X=              0.0011    Y=             -0.0021    Z=             -0.0000  Tot=              0.0024
 Quadrupole moment (field-independent basis, Debye-Ang):
   XX=            -20.7239   YY=            -33.1731   ZZ=            -26.6244
   XY=              2.8111   XZ=             -0.0000   YZ=              0.0000
 Traceless Quadrupole moment (field-independent basis, Debye-Ang):
   XX=              6.1166   YY=             -6.3326   ZZ=              0.2160
   XY=              2.8111   XZ=             -0.0000   YZ=              0.0000
 Octapole moment (field-independent basis, Debye-Ang**2):
  XXX=             -0.0014  YYY=             -0.0097  ZZZ=              0.0000  XYY=              0.0009
  XXY=              0.0015  XXZ=              0.0000  XZZ=              0.0030  YZZ=             -0.0048
  YYZ=              0.0000  XYZ=             -0.0000
 Hexadecapole moment (field-independent basis, Debye-Ang**3):
 XXXX=           -149.6011 YYYY=           -241.4951 ZZZZ=            -66.1389 XXXY=            -12.8166
 XXXZ=             -0.0000 YYYX=            -17.0793 YYYZ=              0.0000 ZZZX=              0.0000
 ZZZY=             -0.0000 XXYY=            -72.6964 XXZZ=            -28.5463 YYZZ=            -54.1954
 XXYZ=             -0.0000 YYXZ=             -0.0000 ZZXY=             -2.2739
 N-N= 1.146120424972D+02 E-N=-6.104794603112D+02  KE= 1.633014839453D+02
 Symmetry A'   KE= 1.549179926216D+02
 Symmetry A"   KE= 8.383491323705D+00
 No NMR shielding tensors so no spin-rotation constants.
 Leave Link  601 at Thu Mar  9 15:15:07 2017, MaxMem=  1127874560 cpu:         0.8
 (Enter /share/apps/g09RelE.01/g09/l701.exe)
 Compute integral first derivatives.
 ... and contract with generalized density number  0.
 R6Disp: Adding Grimme-D2 dispersion energy 1st derivatives to the gradient.
 Leave Link  701 at Thu Mar  9 15:15:07 2017, MaxMem=  1127874560 cpu:         0.9
 (Enter /share/apps/g09RelE.01/g09/l702.exe)
 L702 exits ... SP integral derivatives will be done elsewhere.
 Leave Link  702 at Thu Mar  9 15:15:07 2017, MaxMem=  1127874560 cpu:         0.2
 (Enter /share/apps/g09RelE.01/g09/l703.exe)
 Compute integral first derivatives, UseDBF=F ICtDFT=           0.
 Integral derivatives from FoFJK, PRISM(SPDF).
 Calling FoFJK, ICntrl=      2127 FMM=F ISym2X=1 I1Cent= 0 IOpClX= 0 NMat=1 NMatS=1 NMatT=0.
 FoFJK:  IHMeth= 1 ICntrl=    2127 DoSepK=T KAlg= 0 I1Cent=   0 FoldK=F
 IRaf=         1 NMat=   1 IRICut=       1 DoRegI=T DoRafI=F ISym2E= 1.
 FoFCou: FMM=F IPFlag=           0 FMFlag=      100000 FMFlg1=         800
         NFxFlg=           0 DoJE=F BraDBF=F KetDBF=F FulRan=T
         wScrn=  0.000000 ICntrl=    2527 IOpCl=  0 I1Cent=           0 NGrid=           0
         NMat0=    1 NMatS0=      1 NMatT0=    0 NMatD0=    1 NMtDS0=    0 NMtDT0=    0
 Petite list used in FoFCou.
 Leave Link  703 at Thu Mar  9 15:15:12 2017, MaxMem=  1127874560 cpu:        19.3
 (Enter /share/apps/g09RelE.01/g09/l716.exe)
 Dipole        = 4.48016803D-04-8.31903864D-04-2.22044605D-16
 ***** Axes restored to original set *****
 -------------------------------------------------------------------
 Center     Atomic                   Forces (Hartrees/Bohr)
 Number     Number              X              Y              Z
 -------------------------------------------------------------------
      1        5           0.001507279    0.001407880    0.000000000
      2        7          -0.000948376   -0.001405630    0.000000000
      3        7           0.000928833    0.001425156   -0.000000000
      4        5          -0.001173277   -0.001671511   -0.000000000
      5        1           0.000054344    0.000079028    0.000032245
      6        1           0.000054344    0.000079028   -0.000032245
      7        1          -0.000024132    0.000073321   -0.000021596
      8        1          -0.000024132    0.000073321    0.000021596
      9        1          -0.000101270   -0.000074027   -0.000041345
     10        1          -0.000101270   -0.000074027    0.000041345
     11        1          -0.000086172    0.000043729   -0.000043394
     12        1          -0.000086172    0.000043729    0.000043394
 -------------------------------------------------------------------
 Cartesian Forces:  Max     0.001671511 RMS     0.000629908
 Leave Link  716 at Thu Mar  9 15:15:13 2017, MaxMem=  1127874560 cpu:         0.2
 (Enter /share/apps/g09RelE.01/g09/l103.exe)

 GradGradGradGradGradGradGradGradGradGradGradGradGradGradGradGradGradGrad
 Berny optimization.
 FormGI is forming the generalized inverse of G from B-inverse, IUseBI=4.
 Internal  Forces:  Max     0.001959261 RMS     0.000326153
 Search for a local minimum.
 Step number   1 out of a maximum of   82 on scan point     1 out of     2
 All quantities printed in internal units (Hartrees-Bohrs-Radians)
 RMS Force = .41134D-04 SwitMx=.10000D-02 MixMth= 2
 Mixed Optimization -- En-DIIS/RFO-DIIS
 Second derivative matrix not updated -- first step.
 ITU=  0
     Eigenvalues ---    0.00546   0.02599   0.03508   0.03608   0.04204
     Eigenvalues ---    0.04406   0.04643   0.04808   0.06618   0.07306
     Eigenvalues ---    0.07320   0.07601   0.07651   0.07929   0.07931
     Eigenvalues ---    0.08691   0.08838   0.21737   0.24958   0.24958
     Eigenvalues ---    0.24965   0.24965   0.35610   0.38039   0.46553
     Eigenvalues ---    0.46553   0.46557   0.465571000.000001000.00000
     Eigenvalues --- 1000.000001000.000001000.000001000.000001000.00000
     Eigenvalues --- 1000.000001000.000001000.000001000.000001000.00000
     Eigenvalues --- 1000.000001000.000001000.000001000.000001000.00000
     Eigenvalues --- 1000.000001000.000001000.000001000.000001000.00000
     Eigenvalues --- 1000.000001000.000001000.000001000.000001000.00000
     Eigenvalues --- 1000.000001000.000001000.000001000.000001000.00000
     Eigenvalues --- 1000.000001000.000001000.000001000.000001000.00000
     Eigenvalues --- 1000.000001000.000001000.000001000.000001000.00000
     Eigenvalues --- 1000.000001000.00000
 RFO step:  Lambda=-1.22493444D-06 EMin= 5.45924309D-03
 Linear search not attempted -- first point.
 Iteration  1 RMS(Cart)=  0.00036139 RMS(Int)=  0.00000021
 Iteration  2 RMS(Cart)=  0.00000015 RMS(Int)=  0.00000015
 Iteration  1 RMS(Cart)=  0.00000000 RMS(Int)=  0.00000000
 ITry= 1 IFail=0 DXMaxC= 9.67D-04 DCOld= 1.00D+10 DXMaxT= 3.00D-01 DXLimC= 3.00D+00 Rises=F
 ClnCor:  largest displacement from symmetrization is 2.66D-12 for atom     8.
 Variable       Old X    -DE/DX   Delta X   Delta X   Delta X     New X
                                 (Linear)    (Quad)   (Total)
    R1        4.16297  -0.00196   0.00000   0.00000   0.00000   4.16297
    R2        2.74283   0.00014   0.00000   0.00039   0.00039   2.74322
    R3        2.26015  -0.00001   0.00000  -0.00004  -0.00004   2.26011
    R4        2.26015  -0.00001   0.00000  -0.00004  -0.00004   2.26011
    R5        2.74333   0.00005   0.00000   0.00011   0.00011   2.74344
    R6        1.90213  -0.00002   0.00000  -0.00004  -0.00004   1.90209
    R7        1.90213  -0.00002   0.00000  -0.00004  -0.00004   1.90209
    R8        4.16297  -0.00192   0.00000   0.00000  -0.00000   4.16297
    R9        1.90208   0.00000   0.00000   0.00000   0.00000   1.90208
   R10        1.90208   0.00000   0.00000   0.00000   0.00000   1.90208
   R11        2.25997   0.00001   0.00000   0.00006   0.00006   2.26003
   R12        2.25997   0.00001   0.00000   0.00006   0.00006   2.26003
    A1        1.69680  -0.00007   0.00000  -0.00016  -0.00016   1.69663
    A2        1.66826   0.00004   0.00000   0.00030   0.00030   1.66856
    A3        1.66826   0.00004   0.00000   0.00030   0.00030   1.66856
    A4        2.06027  -0.00004   0.00000  -0.00056  -0.00056   2.05971
    A5        2.06027  -0.00004   0.00000  -0.00056  -0.00056   2.05971
    A6        2.10388   0.00007   0.00000   0.00097   0.00097   2.10486
    A7        1.44482   0.00008   0.00000   0.00015   0.00015   1.44497
    A8        1.86025  -0.00007   0.00000  -0.00085  -0.00085   1.85939
    A9        1.86025  -0.00007   0.00000  -0.00085  -0.00085   1.85939
   A10        2.10318  -0.00002   0.00000   0.00002   0.00002   2.10320
   A11        2.10318  -0.00002   0.00000   0.00002   0.00002   2.10320
   A12        1.96588   0.00007   0.00000   0.00069   0.00069   1.96656
   A13        1.44491   0.00005   0.00000   0.00010   0.00010   1.44501
   A14        2.10292  -0.00001   0.00000   0.00019   0.00019   2.10311
   A15        2.10292  -0.00001   0.00000   0.00019   0.00019   2.10311
   A16        1.86016  -0.00006   0.00000  -0.00079  -0.00079   1.85937
   A17        1.86016  -0.00006   0.00000  -0.00079  -0.00079   1.85937
   A18        1.96637   0.00004   0.00000   0.00035   0.00035   1.96673
   A19        1.69665  -0.00006   0.00000  -0.00008  -0.00008   1.69657
   A20        2.05885   0.00002   0.00000   0.00018   0.00018   2.05903
   A21        2.05885   0.00002   0.00000   0.00018   0.00018   2.05903
   A22        1.66796   0.00004   0.00000   0.00045   0.00045   1.66841
   A23        1.66796   0.00004   0.00000   0.00045   0.00045   1.66841
   A24        2.10700  -0.00005   0.00000  -0.00066  -0.00066   2.10634
    D1        0.00000  -0.00000   0.00000  -0.00000   0.00000   0.00000
    D2       -2.08993   0.00000   0.00000  -0.00004  -0.00004  -2.08997
    D3        2.08993  -0.00000   0.00000   0.00004   0.00004   2.08997
    D4        2.08124  -0.00004   0.00000  -0.00055  -0.00055   2.08069
    D5       -0.00869  -0.00004   0.00000  -0.00059  -0.00059  -0.00928
    D6       -2.11202  -0.00005   0.00000  -0.00050  -0.00050  -2.11252
    D7       -2.08124   0.00004   0.00000   0.00055   0.00055  -2.08069
    D8        2.11202   0.00005   0.00000   0.00050   0.00050   2.11252
    D9        0.00869   0.00004   0.00000   0.00059   0.00059   0.00928
   D10        0.00000   0.00000   0.00000   0.00000   0.00000   0.00000
   D11       -1.83305   0.00004   0.00000   0.00086   0.00086  -1.83219
   D12        1.83305  -0.00004   0.00000  -0.00086  -0.00086   1.83219
   D13       -1.75038  -0.00000   0.00000  -0.00012  -0.00012  -1.75050
   D14        2.69975   0.00003   0.00000   0.00074   0.00074   2.70049
   D15        0.08267  -0.00004   0.00000  -0.00098  -0.00098   0.08169
   D16        1.75038   0.00000   0.00000   0.00012   0.00012   1.75050
   D17       -0.08267   0.00004   0.00000   0.00098   0.00098  -0.08169
   D18       -2.69975  -0.00003   0.00000  -0.00074  -0.00074  -2.70049
   D19        0.00000   0.00000   0.00000   0.00000   0.00000   0.00000
   D20        1.74963   0.00002   0.00000   0.00051   0.00051   1.75014
   D21       -1.74963  -0.00002   0.00000  -0.00051  -0.00051  -1.75014
   D22        1.83310  -0.00004   0.00000  -0.00090  -0.00090   1.83220
   D23       -2.70045  -0.00002   0.00000  -0.00039  -0.00039  -2.70084
   D24        0.08347  -0.00006   0.00000  -0.00142  -0.00142   0.08206
   D25       -1.83310   0.00004   0.00000   0.00090   0.00090  -1.83220
   D26       -0.08347   0.00006   0.00000   0.00142   0.00142  -0.08206
   D27        2.70045   0.00002   0.00000   0.00039   0.00039   2.70084
   D28        0.00000  -0.00000   0.00000  -0.00000   0.00000   0.00000
   D29       -2.07970  -0.00002   0.00000  -0.00026  -0.00026  -2.07996
   D30        2.07970   0.00002   0.00000   0.00026   0.00026   2.07996
   D31        2.08969   0.00001   0.00000   0.00021   0.00021   2.08989
   D32        0.00998  -0.00001   0.00000  -0.00005  -0.00005   0.00993
   D33       -2.11380   0.00003   0.00000   0.00046   0.00046  -2.11333
   D34       -2.08969  -0.00001   0.00000  -0.00021  -0.00021  -2.08989
   D35        2.11380  -0.00003   0.00000  -0.00046  -0.00046   2.11333
   D36       -0.00998   0.00001   0.00000   0.00005   0.00005  -0.00993
         Item               Value     Threshold  Converged?
 Maximum Force            0.000140     0.002500     YES
 RMS     Force            0.000041     0.001667     YES
 Maximum Displacement     0.000967     0.010000     YES
 RMS     Displacement     0.000361     0.006667     YES
 Predicted change in Energy=-6.125577D-07
 Optimization completed.
    -- Stationary point found.
                           ----------------------------
                           !   Optimized Parameters   !
                           ! (Angstroms and Degrees)  !
 --------------------------                            --------------------------
 ! Name  Definition              Value          Derivative Info.                !
 --------------------------------------------------------------------------------
 ! R1    R(1,2)                  2.2029         -DE/DX =   -0.002               !
 ! R2    R(1,3)                  1.4514         -DE/DX =    0.0001              !
 ! R3    R(1,11)                 1.196          -DE/DX =    0.0                 !
 ! R4    R(1,12)                 1.196          -DE/DX =    0.0                 !
 ! R5    R(2,4)                  1.4517         -DE/DX =    0.0                 !
 ! R6    R(2,9)                  1.0066         -DE/DX =    0.0                 !
 ! R7    R(2,10)                 1.0066         -DE/DX =    0.0                 !
 ! R8    R(3,4)                  2.203          -DE/DX =   -0.0019              !
 ! R9    R(3,5)                  1.0065         -DE/DX =    0.0                 !
 ! R10   R(3,6)                  1.0065         -DE/DX =    0.0                 !
 ! R11   R(4,7)                  1.1959         -DE/DX =    0.0                 !
 ! R12   R(4,8)                  1.1959         -DE/DX =    0.0                 !
 ! A1    A(2,1,3)               97.2195         -DE/DX =   -0.0001              !
 ! A2    A(2,1,11)              95.5844         -DE/DX =    0.0                 !
 ! A3    A(2,1,12)              95.5844         -DE/DX =    0.0                 !
 ! A4    A(3,1,11)             118.0447         -DE/DX =    0.0                 !
 ! A5    A(3,1,12)             118.0447         -DE/DX =    0.0                 !
 ! A6    A(11,1,12)            120.5437         -DE/DX =    0.0001              !
 ! A7    A(1,2,4)               82.7819         -DE/DX =    0.0001              !
 ! A8    A(1,2,9)              106.5844         -DE/DX =   -0.0001              !
 ! A9    A(1,2,10)             106.5844         -DE/DX =   -0.0001              !
 ! A10   A(4,2,9)              120.5031         -DE/DX =    0.0                 !
 ! A11   A(4,2,10)             120.5031         -DE/DX =    0.0                 !
 ! A12   A(9,2,10)             112.6364         -DE/DX =    0.0001              !
 ! A13   A(1,3,4)               82.7875         -DE/DX =    0.0001              !
 ! A14   A(1,3,5)              120.4883         -DE/DX =    0.0                 !
 ! A15   A(1,3,6)              120.4883         -DE/DX =    0.0                 !
 ! A16   A(4,3,5)              106.5794         -DE/DX =   -0.0001              !
 ! A17   A(4,3,6)              106.5794         -DE/DX =   -0.0001              !
 ! A18   A(5,3,6)              112.6648         -DE/DX =    0.0                 !
 ! A19   A(2,4,3)               97.2111         -DE/DX =   -0.0001              !
 ! A20   A(2,4,7)              117.9636         -DE/DX =    0.0                 !
 ! A21   A(2,4,8)              117.9636         -DE/DX =    0.0                 !
 ! A22   A(3,4,7)               95.5671         -DE/DX =    0.0                 !
 ! A23   A(3,4,8)               95.5671         -DE/DX =    0.0                 !
 ! A24   A(7,4,8)              120.7222         -DE/DX =   -0.0001              !
 ! D1    D(3,1,2,4)              0.0            -DE/DX =    0.0                 !
 ! D2    D(3,1,2,9)           -119.7442         -DE/DX =    0.0                 !
 ! D3    D(3,1,2,10)           119.7442         -DE/DX =    0.0                 !
 ! D4    D(11,1,2,4)           119.2461         -DE/DX =    0.0                 !
 ! D5    D(11,1,2,9)            -0.4981         -DE/DX =    0.0                 !
 ! D6    D(11,1,2,10)         -121.0097         -DE/DX =    0.0                 !
 ! D7    D(12,1,2,4)          -119.2461         -DE/DX =    0.0                 !
 ! D8    D(12,1,2,9)           121.0097         -DE/DX =    0.0                 !
 ! D9    D(12,1,2,10)            0.4981         -DE/DX =    0.0                 !
 ! D10   D(2,1,3,4)              0.0            -DE/DX =    0.0                 !
 ! D11   D(2,1,3,5)           -105.0261         -DE/DX =    0.0                 !
 ! D12   D(2,1,3,6)            105.0261         -DE/DX =    0.0                 !
 ! D13   D(11,1,3,4)          -100.2893         -DE/DX =    0.0                 !
 ! D14   D(11,1,3,5)           154.6845         -DE/DX =    0.0                 !
 ! D15   D(11,1,3,6)             4.7368         -DE/DX =    0.0                 !
 ! D16   D(12,1,3,4)           100.2893         -DE/DX =    0.0                 !
 ! D17   D(12,1,3,5)            -4.7368         -DE/DX =    0.0                 !
 ! D18   D(12,1,3,6)          -154.6845         -DE/DX =    0.0                 !
 ! D19   D(1,2,4,3)              0.0            -DE/DX =    0.0                 !
 ! D20   D(1,2,4,7)            100.2464         -DE/DX =    0.0                 !
 ! D21   D(1,2,4,8)           -100.2464         -DE/DX =    0.0                 !
 ! D22   D(9,2,4,3)            105.0291         -DE/DX =    0.0                 !
 ! D23   D(9,2,4,7)           -154.7244         -DE/DX =    0.0                 !
 ! D24   D(9,2,4,8)              4.7827         -DE/DX =   -0.0001              !
 ! D25   D(10,2,4,3)          -105.0291         -DE/DX =    0.0                 !
 ! D26   D(10,2,4,7)            -4.7827         -DE/DX =    0.0001              !
 ! D27   D(10,2,4,8)           154.7244         -DE/DX =    0.0                 !
 ! D28   D(1,3,4,2)              0.0            -DE/DX =    0.0                 !
 ! D29   D(1,3,4,7)           -119.1581         -DE/DX =    0.0                 !
 ! D30   D(1,3,4,8)            119.1581         -DE/DX =    0.0                 !
 ! D31   D(5,3,4,2)            119.7302         -DE/DX =    0.0                 !
 ! D32   D(5,3,4,7)              0.5721         -DE/DX =    0.0                 !
 ! D33   D(5,3,4,8)           -121.1117         -DE/DX =    0.0                 !
 ! D34   D(6,3,4,2)           -119.7302         -DE/DX =    0.0                 !
 ! D35   D(6,3,4,7)            121.1117         -DE/DX =    0.0                 !
 ! D36   D(6,3,4,8)             -0.5721         -DE/DX =    0.0                 !
 --------------------------------------------------------------------------------
 Lowest energy point so far.  Saving SCF results.
 Iteration  1 RMS(Cart)=  0.02744799 RMS(Int)=  0.00833365
 Iteration  2 RMS(Cart)=  0.00010432 RMS(Int)=  0.00833331
 Iteration  3 RMS(Cart)=  0.00000040 RMS(Int)=  0.00833331
 Iteration  1 RMS(Cart)=  0.00547012 RMS(Int)=  0.00233361
 Iteration  2 RMS(Cart)=  0.00153187 RMS(Int)=  0.00255808
 Iteration  3 RMS(Cart)=  0.00042901 RMS(Int)=  0.00269163
 Iteration  4 RMS(Cart)=  0.00012015 RMS(Int)=  0.00273352
 Iteration  5 RMS(Cart)=  0.00003365 RMS(Int)=  0.00274557
 Iteration  6 RMS(Cart)=  0.00000942 RMS(Int)=  0.00274898
 Iteration  7 RMS(Cart)=  0.00000264 RMS(Int)=  0.00274993
 Iteration  8 RMS(Cart)=  0.00000074 RMS(Int)=  0.00275020
 GradGradGradGradGradGradGradGradGradGradGradGradGradGradGradGradGradGrad

 Leave Link  103 at Thu Mar  9 15:15:13 2017, MaxMem=  1127874560 cpu:         0.2
 (Enter /share/apps/g09RelE.01/g09/l202.exe)
                          Input orientation:                          
 ---------------------------------------------------------------------
 Center     Atomic      Atomic             Coordinates (Angstroms)
 Number     Number       Type             X           Y           Z
 ---------------------------------------------------------------------
      1          5           0       -0.024422   -1.283232    0.000000
      2          7           0        1.307632    0.595386    0.000000
      3          7           0       -1.277264   -0.553738    0.000000
      4          5           0        0.003024    1.238985    0.000000
      5          1           0       -1.829775   -0.496288    0.839380
      6          1           0       -1.829775   -0.496288   -0.839380
      7          1           0       -0.412035    1.658826    1.040087
      8          1           0       -0.412035    1.658826   -1.040087
      9          1           0        1.867103    0.564521   -0.836170
     10          1           0        1.867103    0.564521    0.836170
     11          1           0        0.370977   -1.726604   -1.038031
     12          1           0        0.370977   -1.726604    1.038031
 ---------------------------------------------------------------------
                    Distance matrix (angstroms):
                    1          2          3          4          5
     1  B    0.000000
     2  N    2.302949   0.000000
     3  N    1.449750   2.828812   0.000000
     4  B    2.522366   1.454724   2.202951   0.000000
     5  H    2.140826   3.426315   1.006542   2.659865   0.000000
     6  H    2.140826   3.426315   1.006542   2.659865   1.678760
     7  H    3.144476   2.273751   2.593423   1.195960   2.587428
     8  H    3.144476   2.273751   2.593423   1.195960   3.191692
     9  H    2.773308   1.006548   3.440455   2.151482   4.195199
    10  H    2.773308   1.006548   3.440455   2.151482   3.846067
    11  H    1.196005   2.710437   2.273724   3.163482   3.143511
    12  H    1.196005   2.710437   2.273724   3.163482   2.529120
                    6          7          8          9         10
     6  H    0.000000
     7  H    3.191692   0.000000
     8  H    2.587428   2.080173   0.000000
     9  H    3.846067   3.148383   2.536446   0.000000
    10  H    4.195199   2.536446   3.148383   1.672339   0.000000
    11  H    2.529120   4.048804   3.474802   2.743792   3.316667
    12  H    3.143511   3.474802   4.048804   3.316667   2.743792
                   11         12
    11  H    0.000000
    12  H    2.076063   0.000000
 Stoichiometry    B2H8N2
 Framework group  CS[SG(B2N2),X(H8)]
 Deg. of freedom    17
 Full point group                 CS      NOp   2
 RotChk:  IX=1 Diff= 4.85D-05
 Largest Abelian subgroup         CS      NOp   2
 Largest concise Abelian subgroup CS      NOp   2
                         Standard orientation:                         
 ---------------------------------------------------------------------
 Center     Atomic      Atomic             Coordinates (Angstroms)
 Number     Number       Type             X           Y           Z
 ---------------------------------------------------------------------
      1          5           0        0.027533    1.285456    0.000000
      2          7           0       -1.304586   -0.593116    0.000000
      3          7           0        1.280350    0.555920    0.000000
      4          5           0        0.000000   -1.236760    0.000000
      5          1           0        1.832858    0.498450    0.839380
      6          1           0        1.832858    0.498450   -0.839380
      7          1           0        0.415045   -1.656615    1.040087
      8          1           0        0.415045   -1.656615   -1.040087
      9          1           0       -1.864056   -0.562232   -0.836170
     10          1           0       -1.864056   -0.562232    0.836170
     11          1           0       -0.367851    1.728842   -1.038031
     12          1           0       -0.367851    1.728842    1.038031
 ---------------------------------------------------------------------
 Rotational constants (GHZ):     11.5672453      5.6884275      4.2767026
 Leave Link  202 at Thu Mar  9 15:15:13 2017, MaxMem=  1127874560 cpu:         0.0
 (Enter /share/apps/g09RelE.01/g09/l301.exe)
 Standard basis: 6-311G(d,p) (5D, 7F)
 Ernie: Thresh=  0.10000D-02 Tol=  0.10000D-05 Strict=F.
 There are    80 symmetry adapted cartesian basis functions of A'  symmetry.
 There are    44 symmetry adapted cartesian basis functions of A"  symmetry.
 There are    76 symmetry adapted basis functions of A'  symmetry.
 There are    44 symmetry adapted basis functions of A"  symmetry.
   120 basis functions,   192 primitive gaussians,   124 cartesian basis functions
    16 alpha electrons       16 beta electrons
       nuclear repulsion energy       113.7331972246 Hartrees.
 IExCor= 4639 DFT=T Ex+Corr=wB97XD ExCW=0 ScaHFX=  1.000000
 ScaDFX=  1.000000  1.000000  1.000000  1.000000 ScalE2=  1.000000  1.000000
 IRadAn=      5 IRanWt=     -1 IRanGd=            0 ICorTp=0 IEmpDi=121
  HFx wShort=  0.000000 wLong=  0.200000 cFull=  0.222036 cShort=  0.000000 cLong=  0.777964
  DFx wShort=  0.000000 wLong=  0.200000 cFull=  0.000000 cShort=  0.000000 cLong=  1.000000
 NAtoms=   12 NActive=   12 NUniq=    8 SFac= 2.25D+00 NAtFMM=   60 NAOKFM=F Big=F
 Integral buffers will be    131072 words long.
 Raffenetti 2 integral format.
 Two-electron integral symmetry is turned on.
 R6Disp:  Grimme-D2 Dispersion energy=       -0.0055952648 Hartrees.
 Nuclear repulsion after empirical dispersion term =      113.7276019598 Hartrees.
 Leave Link  301 at Thu Mar  9 15:15:13 2017, MaxMem=  1127874560 cpu:         0.3
 (Enter /share/apps/g09RelE.01/g09/l302.exe)
 NPDir=0 NMtPBC=     1 NCelOv=     1 NCel=       1 NClECP=     1 NCelD=      1
         NCelK=      1 NCelE2=     1 NClLst=     1 CellRange=     0.0.
 One-electron integrals computed using PRISM.
 One-electron integral symmetry used in STVInt
 NBasis=   120 RedAO= T EigKep=  6.03D-03  NBF=    76    44
 NBsUse=   120 1.00D-06 EigRej= -1.00D+00 NBFU=    76    44
 Precomputing XC quadrature grid using
 IXCGrd= 4 IRadAn=           5 IRanWt=          -1 IRanGd=           0 AccXCQ= 0.00D+00.
 Generated NRdTot=       0 NPtTot=           0 NUsed=           0 NTot=          32
 NSgBfM=   124   124   124   124   124 MxSgAt=    12 MxSgA2=    12.
 Leave Link  302 at Thu Mar  9 15:15:13 2017, MaxMem=  1127874560 cpu:         1.3
 (Enter /share/apps/g09RelE.01/g09/l303.exe)
 DipDrv:  MaxL=1.
 Leave Link  303 at Thu Mar  9 15:15:13 2017, MaxMem=  1127874560 cpu:         0.2
 (Enter /share/apps/g09RelE.01/g09/l401.exe)
 Initial guess from the checkpoint file:  "AB-AB-NHscan.chk"
 B after Tr=    -0.000000   -0.000000   -0.000000
         Rot=    1.000000    0.000000    0.000000   -0.000650 Ang=  -0.07 deg.
 Guess basis will be translated and rotated to current coordinates.
 JPrj=2 DoOrth=T DoCkMO=T.
 Initial guess orbital symmetries:
       Occupied  (A') (A') (A') (A') (A') (A') (A') (A") (A') (A")
                 (A') (A') (A') (A") (A") (A')
       Virtual   (A') (A') (A') (A') (A') (A') (A') (A') (A') (A')
                 (A') (A') (A') (A') (A') (A') (A') (A') (A') (A')
                 (A') (A') (A') (A') (A') (A') (A') (A') (A') (A')
                 (A') (A') (A') (A') (A') (A') (A') (A') (A') (A')
                 (A') (A') (A') (A') (A') (A') (A') (A') (A') (A')
                 (A') (A') (A') (A') (A') (A') (A') (A') (A') (A')
                 (A') (A') (A') (A') (A") (A") (A") (A") (A") (A")
                 (A") (A") (A") (A") (A") (A") (A") (A") (A") (A")
                 (A") (A") (A") (A") (A") (A") (A") (A") (A") (A")
                 (A") (A") (A") (A") (A") (A") (A") (A") (A") (A")
                 (A") (A") (A") (A")
 The electronic state of the initial guess is 1-A'.
 Generating alternative initial guess.
 ExpMin= 9.89D-02 ExpMax= 6.29D+03 ExpMxC= 9.49D+02 IAcc=2 IRadAn=         4 AccDes= 0.00D+00
 Harris functional with IExCor= 4639 and IRadAn=       4 diagonalized for initial guess.
 HarFok:  IExCor= 4639 AccDes= 0.00D+00 IRadAn=         4 IDoV= 1 UseB2=F ITyADJ=14
 ICtDFT=  3500011 ScaDFX=  1.000000  1.000000  1.000000  1.000000
 FoFCou: FMM=F IPFlag=           0 FMFlag=      100000 FMFlg1=           0
         NFxFlg=           0 DoJE=T BraDBF=F KetDBF=T FulRan=T
         wScrn=  0.000000 ICntrl=     500 IOpCl=  0 I1Cent=   200000004 NGrid=           0
         NMat0=    1 NMatS0=      1 NMatT0=    0 NMatD0=    1 NMtDS0=    0 NMtDT0=    0
 Petite list used in FoFCou.
 Harris En= -156.187576815609    
 Leave Link  401 at Thu Mar  9 15:15:14 2017, MaxMem=  1127874560 cpu:         3.0
 (Enter /share/apps/g09RelE.01/g09/l502.exe)
 Closed shell SCF:
 Using DIIS extrapolation, IDIIS=  1040.
 Integral symmetry usage will be decided dynamically.
 Keep R1 ints in memory in symmetry-blocked form, NReq=79321962.
 IVT=       66538 IEndB=       66538 NGot=  1127874560 MDV=  1114529905
 LenX=  1114529905 LenY=  1114514088
 Requested convergence on RMS density matrix=1.00D-08 within 128 cycles.
 Requested convergence on MAX density matrix=1.00D-06.
 Requested convergence on             energy=1.00D-06.
 No special actions if energy rises.
 FoFCou: FMM=F IPFlag=           0 FMFlag=           0 FMFlg1=           0
         NFxFlg=           0 DoJE=F BraDBF=F KetDBF=F FulRan=T
         wScrn=  0.000000 ICntrl=     600 IOpCl=  0 I1Cent=           0 NGrid=           0
         NMat0=    1 NMatS0=   7260 NMatT0=    0 NMatD0=    1 NMtDS0=    0 NMtDT0=    0
 Petite list used in FoFCou.
 Integral accuracy reduced to 1.0D-05 until final iterations.

 Cycle   1  Pass 0  IDiag  1:
 E= -164.061275631741    
 DIIS: error= 2.88D-03 at cycle   1 NSaved=   1.
 NSaved= 1 IEnMin= 1 EnMin= -164.061275631741     IErMin= 1 ErrMin= 2.88D-03
 ErrMax= 2.88D-03  0.00D+00 EMaxC= 1.00D-01 BMatC= 6.00D-04 BMatP= 6.00D-04
 IDIUse=3 WtCom= 9.71D-01 WtEn= 2.88D-02
 Coeff-Com:  0.100D+01
 Coeff-En:   0.100D+01
 Coeff:      0.100D+01
 Gap=     0.759 Goal=   None    Shift=    0.000
 GapD=    0.759 DampG=2.000 DampE=1.000 DampFc=2.0000 IDamp=-1.
 RMSDP=2.47D-04 MaxDP=4.04D-03              OVMax= 1.35D-02

 Cycle   2  Pass 0  IDiag  1:
 E= -164.062455090113     Delta-E=       -0.001179458372 Rises=F Damp=F
 DIIS: error= 1.00D-03 at cycle   2 NSaved=   2.
 NSaved= 2 IEnMin= 2 EnMin= -164.062455090113     IErMin= 2 ErrMin= 1.00D-03
 ErrMax= 1.00D-03  0.00D+00 EMaxC= 1.00D-01 BMatC= 3.90D-05 BMatP= 6.00D-04
 IDIUse=3 WtCom= 9.90D-01 WtEn= 1.00D-02
 Coeff-Com: -0.132D+00 0.113D+01
 Coeff-En:   0.000D+00 0.100D+01
 Coeff:     -0.130D+00 0.113D+01
 Gap=     0.406 Goal=   None    Shift=    0.000
 RMSDP=8.26D-05 MaxDP=1.06D-03 DE=-1.18D-03 OVMax= 6.24D-03

 Cycle   3  Pass 0  IDiag  1:
 E= -164.062557756236     Delta-E=       -0.000102666123 Rises=F Damp=F
 DIIS: error= 4.36D-04 at cycle   3 NSaved=   3.
 NSaved= 3 IEnMin= 3 EnMin= -164.062557756236     IErMin= 3 ErrMin= 4.36D-04
 ErrMax= 4.36D-04  0.00D+00 EMaxC= 1.00D-01 BMatC= 1.69D-05 BMatP= 3.90D-05
 IDIUse=3 WtCom= 9.96D-01 WtEn= 4.36D-03
 Coeff-Com: -0.999D-01 0.465D+00 0.635D+00
 Coeff-En:   0.000D+00 0.000D+00 0.100D+01
 Coeff:     -0.995D-01 0.463D+00 0.636D+00
 Gap=     0.406 Goal=   None    Shift=    0.000
 RMSDP=2.74D-05 MaxDP=7.23D-04 DE=-1.03D-04 OVMax= 2.05D-03

 Cycle   4  Pass 0  IDiag  1:
 E= -164.062575533558     Delta-E=       -0.000017777323 Rises=F Damp=F
 DIIS: error= 1.93D-04 at cycle   4 NSaved=   4.
 NSaved= 4 IEnMin= 4 EnMin= -164.062575533558     IErMin= 4 ErrMin= 1.93D-04
 ErrMax= 1.93D-04  0.00D+00 EMaxC= 1.00D-01 BMatC= 1.69D-06 BMatP= 1.69D-05
 IDIUse=3 WtCom= 9.98D-01 WtEn= 1.93D-03
 Coeff-Com: -0.215D-02-0.768D-01 0.183D+00 0.896D+00
 Coeff-En:   0.000D+00 0.000D+00 0.000D+00 0.100D+01
 Coeff:     -0.214D-02-0.767D-01 0.183D+00 0.896D+00
 Gap=     0.406 Goal=   None    Shift=    0.000
 RMSDP=1.70D-05 MaxDP=3.77D-04 DE=-1.78D-05 OVMax= 1.39D-03

 Cycle   5  Pass 0  IDiag  1:
 E= -164.062579129716     Delta-E=       -0.000003596157 Rises=F Damp=F
 DIIS: error= 6.37D-05 at cycle   5 NSaved=   5.
 NSaved= 5 IEnMin= 5 EnMin= -164.062579129716     IErMin= 5 ErrMin= 6.37D-05
 ErrMax= 6.37D-05  0.00D+00 EMaxC= 1.00D-01 BMatC= 1.02D-07 BMatP= 1.69D-06
 IDIUse=1 WtCom= 1.00D+00 WtEn= 0.00D+00
 Coeff-Com:  0.932D-02-0.556D-01-0.521D-01 0.941D-01 0.100D+01
 Coeff:      0.932D-02-0.556D-01-0.521D-01 0.941D-01 0.100D+01
 Gap=     0.406 Goal=   None    Shift=    0.000
 RMSDP=6.94D-06 MaxDP=1.36D-04 DE=-3.60D-06 OVMax= 6.36D-04

 Initial convergence to 1.0D-05 achieved.  Increase integral accuracy.
 Cycle   6  Pass 1  IDiag  1:
 E= -164.062614907837     Delta-E=       -0.000035778121 Rises=F Damp=F
 DIIS: error= 4.25D-05 at cycle   1 NSaved=   1.
 NSaved= 1 IEnMin= 1 EnMin= -164.062614907837     IErMin= 1 ErrMin= 4.25D-05
 ErrMax= 4.25D-05  0.00D+00 EMaxC= 1.00D-01 BMatC= 1.98D-07 BMatP= 1.98D-07
 IDIUse=1 WtCom= 1.00D+00 WtEn= 0.00D+00
 Coeff-Com:  0.100D+01
 Coeff:      0.100D+01
 Gap=     0.406 Goal=   None    Shift=    0.000
 RMSDP=6.94D-06 MaxDP=1.36D-04 DE=-3.58D-05 OVMax= 2.23D-04

 Cycle   7  Pass 1  IDiag  1:
 E= -164.062615217775     Delta-E=       -0.000000309937 Rises=F Damp=F
 DIIS: error= 1.70D-05 at cycle   2 NSaved=   2.
 NSaved= 2 IEnMin= 2 EnMin= -164.062615217775     IErMin= 2 ErrMin= 1.70D-05
 ErrMax= 1.70D-05  0.00D+00 EMaxC= 1.00D-01 BMatC= 1.25D-08 BMatP= 1.98D-07
 IDIUse=1 WtCom= 1.00D+00 WtEn= 0.00D+00
 Coeff-Com: -0.476D-01 0.105D+01
 Coeff:     -0.476D-01 0.105D+01
 Gap=     0.406 Goal=   None    Shift=    0.000
 RMSDP=1.40D-06 MaxDP=2.51D-05 DE=-3.10D-07 OVMax= 1.10D-04

 Cycle   8  Pass 1  IDiag  1:
 E= -164.062615238392     Delta-E=       -0.000000020617 Rises=F Damp=F
 DIIS: error= 1.21D-05 at cycle   3 NSaved=   3.
 NSaved= 3 IEnMin= 3 EnMin= -164.062615238392     IErMin= 3 ErrMin= 1.21D-05
 ErrMax= 1.21D-05  0.00D+00 EMaxC= 1.00D-01 BMatC= 8.18D-09 BMatP= 1.25D-08
 IDIUse=1 WtCom= 1.00D+00 WtEn= 0.00D+00
 Coeff-Com: -0.729D-01 0.481D+00 0.592D+00
 Coeff:     -0.729D-01 0.481D+00 0.592D+00
 Gap=     0.406 Goal=   None    Shift=    0.000
 RMSDP=4.97D-07 MaxDP=1.51D-05 DE=-2.06D-08 OVMax= 4.28D-05

 Cycle   9  Pass 1  IDiag  1:
 E= -164.062615246488     Delta-E=       -0.000000008096 Rises=F Damp=F
 DIIS: error= 4.08D-06 at cycle   4 NSaved=   4.
 NSaved= 4 IEnMin= 4 EnMin= -164.062615246488     IErMin= 4 ErrMin= 4.08D-06
 ErrMax= 4.08D-06  0.00D+00 EMaxC= 1.00D-01 BMatC= 4.73D-10 BMatP= 8.18D-09
 IDIUse=1 WtCom= 1.00D+00 WtEn= 0.00D+00
 Coeff-Com: -0.535D-02-0.796D-01 0.118D+00 0.967D+00
 Coeff:     -0.535D-02-0.796D-01 0.118D+00 0.967D+00
 Gap=     0.406 Goal=   None    Shift=    0.000
 RMSDP=3.04D-07 MaxDP=4.61D-06 DE=-8.10D-09 OVMax= 3.10D-05

 Cycle  10  Pass 1  IDiag  1:
 E= -164.062615247855     Delta-E=       -0.000000001367 Rises=F Damp=F
 DIIS: error= 1.11D-06 at cycle   5 NSaved=   5.
 NSaved= 5 IEnMin= 5 EnMin= -164.062615247855     IErMin= 5 ErrMin= 1.11D-06
 ErrMax= 1.11D-06  0.00D+00 EMaxC= 1.00D-01 BMatC= 3.13D-11 BMatP= 4.73D-10
 IDIUse=1 WtCom= 1.00D+00 WtEn= 0.00D+00
 Coeff-Com:  0.612D-02-0.397D-01-0.530D-01-0.721D-01 0.116D+01
 Coeff:      0.612D-02-0.397D-01-0.530D-01-0.721D-01 0.116D+01
 Gap=     0.406 Goal=   None    Shift=    0.000
 RMSDP=1.47D-07 MaxDP=2.34D-06 DE=-1.37D-09 OVMax= 1.55D-05

 Cycle  11  Pass 1  IDiag  1:
 E= -164.062615248049     Delta-E=       -0.000000000195 Rises=F Damp=F
 DIIS: error= 3.02D-07 at cycle   6 NSaved=   6.
 NSaved= 6 IEnMin= 6 EnMin= -164.062615248049     IErMin= 6 ErrMin= 3.02D-07
 ErrMax= 3.02D-07  0.00D+00 EMaxC= 1.00D-01 BMatC= 5.38D-12 BMatP= 3.13D-11
 IDIUse=1 WtCom= 1.00D+00 WtEn= 0.00D+00
 Coeff-Com:  0.201D-02-0.453D-03-0.253D-01-0.129D+00 0.306D+00 0.846D+00
 Coeff:      0.201D-02-0.453D-03-0.253D-01-0.129D+00 0.306D+00 0.846D+00
 Gap=     0.406 Goal=   None    Shift=    0.000
 RMSDP=3.94D-08 MaxDP=6.06D-07 DE=-1.95D-10 OVMax= 4.04D-06

 Cycle  12  Pass 1  IDiag  1:
 E= -164.062615248065     Delta-E=       -0.000000000016 Rises=F Damp=F
 DIIS: error= 7.65D-08 at cycle   7 NSaved=   7.
 NSaved= 7 IEnMin= 7 EnMin= -164.062615248065     IErMin= 7 ErrMin= 7.65D-08
 ErrMax= 7.65D-08  0.00D+00 EMaxC= 1.00D-01 BMatC= 7.15D-13 BMatP= 5.38D-12
 IDIUse=1 WtCom= 1.00D+00 WtEn= 0.00D+00
 Coeff-Com: -0.333D-04 0.397D-02-0.154D-02-0.271D-01-0.485D-01 0.252D+00
 Coeff-Com:  0.821D+00
 Coeff:     -0.333D-04 0.397D-02-0.154D-02-0.271D-01-0.485D-01 0.252D+00
 Coeff:      0.821D+00
 Gap=     0.406 Goal=   None    Shift=    0.000
 RMSDP=1.28D-08 MaxDP=1.99D-07 DE=-1.56D-11 OVMax= 1.13D-06

 Cycle  13  Pass 1  IDiag  1:
 E= -164.062615248067     Delta-E=       -0.000000000002 Rises=F Damp=F
 DIIS: error= 2.32D-08 at cycle   8 NSaved=   8.
 NSaved= 8 IEnMin= 8 EnMin= -164.062615248067     IErMin= 8 ErrMin= 2.32D-08
 ErrMax= 2.32D-08  0.00D+00 EMaxC= 1.00D-01 BMatC= 8.93D-14 BMatP= 7.15D-13
 IDIUse=1 WtCom= 1.00D+00 WtEn= 0.00D+00
 Coeff-Com: -0.280D-03 0.163D-02 0.264D-02 0.619D-02-0.547D-01-0.240D-01
 Coeff-Com:  0.277D+00 0.792D+00
 Coeff:     -0.280D-03 0.163D-02 0.264D-02 0.619D-02-0.547D-01-0.240D-01
 Coeff:      0.277D+00 0.792D+00
 Gap=     0.406 Goal=   None    Shift=    0.000
 RMSDP=3.86D-09 MaxDP=6.60D-08 DE=-1.93D-12 OVMax= 3.05D-07

 SCF Done:  E(RwB97XD) =  -164.062615248     A.U. after   13 cycles
            NFock= 13  Conv=0.39D-08     -V/T= 2.0048
 KE= 1.632823499758D+02 PE=-6.087126169503D+02 EE= 1.676400497667D+02
 Leave Link  502 at Thu Mar  9 15:15:31 2017, MaxMem=  1127874560 cpu:        65.7
 (Enter /share/apps/g09RelE.01/g09/l701.exe)
 Compute integral first derivatives.
 ... and contract with generalized density number  0.
 R6Disp: Adding Grimme-D2 dispersion energy 1st derivatives to the gradient.
 Leave Link  701 at Thu Mar  9 15:15:31 2017, MaxMem=  1127874560 cpu:         0.8
 (Enter /share/apps/g09RelE.01/g09/l702.exe)
 L702 exits ... SP integral derivatives will be done elsewhere.
 Leave Link  702 at Thu Mar  9 15:15:31 2017, MaxMem=  1127874560 cpu:         0.1
 (Enter /share/apps/g09RelE.01/g09/l703.exe)
 Compute integral first derivatives, UseDBF=F ICtDFT=           0.
 Integral derivatives from FoFJK, PRISM(SPDF).
 Calling FoFJK, ICntrl=      2127 FMM=F ISym2X=1 I1Cent= 0 IOpClX= 0 NMat=1 NMatS=1 NMatT=0.
 FoFJK:  IHMeth= 1 ICntrl=    2127 DoSepK=T KAlg= 0 I1Cent=   0 FoldK=F
 IRaf=         1 NMat=   1 IRICut=       1 DoRegI=T DoRafI=F ISym2E= 1.
 FoFCou: FMM=F IPFlag=           0 FMFlag=      100000 FMFlg1=         800
         NFxFlg=           0 DoJE=F BraDBF=F KetDBF=F FulRan=T
         wScrn=  0.000000 ICntrl=    2527 IOpCl=  0 I1Cent=           0 NGrid=           0
         NMat0=    1 NMatS0=      1 NMatT0=    0 NMatD0=    1 NMtDS0=    0 NMtDT0=    0
 Petite list used in FoFCou.
 Leave Link  703 at Thu Mar  9 15:15:36 2017, MaxMem=  1127874560 cpu:        19.0
 (Enter /share/apps/g09RelE.01/g09/l716.exe)
 Dipole        = 5.03250194D-02 5.56918763D-02-2.22044605D-16
 ***** Axes restored to original set *****
 -------------------------------------------------------------------
 Center     Atomic                   Forces (Hartrees/Bohr)
 Number     Number              X              Y              Z
 -------------------------------------------------------------------
      1        5          -0.004633004   -0.000531522   -0.000000000
      2        7          -0.004218933    0.000476050   -0.000000000
      3        7           0.004111525   -0.002930404    0.000000000
      4        5           0.005352919   -0.001965198    0.000000000
      5        1          -0.000256958    0.000578098   -0.000083873
      6        1          -0.000256958    0.000578098    0.000083873
      7        1          -0.000291978    0.000051709    0.000094856
      8        1          -0.000291978    0.000051709   -0.000094856
      9        1          -0.000863451   -0.000403521   -0.000392410
     10        1          -0.000863451   -0.000403521    0.000392410
     11        1           0.001106133    0.002249250    0.000042381
     12        1           0.001106133    0.002249250   -0.000042381
 -------------------------------------------------------------------
 Cartesian Forces:  Max     0.005352919 RMS     0.001775473
 Leave Link  716 at Thu Mar  9 15:15:36 2017, MaxMem=  1127874560 cpu:         0.2
 (Enter /share/apps/g09RelE.01/g09/l103.exe)

 GradGradGradGradGradGradGradGradGradGradGradGradGradGradGradGradGradGrad
 Berny optimization.
 FormGI is forming the generalized inverse of G from B-inverse, IUseBI=4.
 Internal  Forces:  Max     0.005004744 RMS     0.000957512
 Search for a local minimum.
 Step number   1 out of a maximum of   82 on scan point     2 out of     2
 All quantities printed in internal units (Hartrees-Bohrs-Radians)
 RMS Force = .89683D-03 SwitMx=.10000D-02 MixMth= 1
 Mixed Optimization -- RFO/linear search
 Second derivative matrix not updated -- first step.
 ITU=  0
     Eigenvalues ---    0.00535   0.02591   0.03498   0.03622   0.04149
     Eigenvalues ---    0.04428   0.04664   0.04801   0.06575   0.07314
     Eigenvalues ---    0.07339   0.07609   0.07673   0.07867   0.08018
     Eigenvalues ---    0.08572   0.08986   0.21738   0.24958   0.24958
     Eigenvalues ---    0.24965   0.24965   0.35702   0.38032   0.46553
     Eigenvalues ---    0.46553   0.46557   0.465571000.000001000.00000
     Eigenvalues --- 1000.000001000.000001000.000001000.000001000.00000
     Eigenvalues --- 1000.000001000.000001000.000001000.000001000.00000
     Eigenvalues --- 1000.000001000.000001000.000001000.000001000.00000
     Eigenvalues --- 1000.000001000.000001000.000001000.000001000.00000
     Eigenvalues --- 1000.000001000.000001000.000001000.000001000.00000
     Eigenvalues --- 1000.000001000.000001000.000001000.000001000.00000
     Eigenvalues --- 1000.000001000.000001000.000001000.000001000.00000
     Eigenvalues --- 1000.000001000.000001000.000001000.000001000.00000
     Eigenvalues --- 1000.000001000.00000
 RFO step:  Lambda=-4.01773992D-04 EMin= 5.35349377D-03
 Linear search not attempted -- first point.
 Iteration  1 RMS(Cart)=  0.00823021 RMS(Int)=  0.00014824
 Iteration  2 RMS(Cart)=  0.00010215 RMS(Int)=  0.00010320
 Iteration  3 RMS(Cart)=  0.00000001 RMS(Int)=  0.00010320
 Iteration  1 RMS(Cart)=  0.00000244 RMS(Int)=  0.00000104
 Iteration  2 RMS(Cart)=  0.00000069 RMS(Int)=  0.00000114
 ITry= 1 IFail=0 DXMaxC= 3.44D-02 DCOld= 1.00D+10 DXMaxT= 3.00D-01 DXLimC= 3.00D+00 Rises=F
 ClnCor:  largest displacement from symmetrization is 2.44D-12 for atom     8.
 Variable       Old X    -DE/DX   Delta X   Delta X   Delta X     New X
                                 (Linear)    (Quad)   (Total)
    R1        4.35194  -0.00278   0.00000   0.00000   0.00000   4.35194
    R2        2.73963  -0.00408   0.00000  -0.01011  -0.01013   2.72950
    R3        2.26012  -0.00051   0.00000  -0.00202  -0.00202   2.25810
    R4        2.26012  -0.00051   0.00000  -0.00202  -0.00202   2.25810
    R5        2.74903  -0.00500   0.00000  -0.01373  -0.01372   2.73531
    R6        1.90210  -0.00014   0.00000  -0.00030  -0.00030   1.90180
    R7        1.90210  -0.00014   0.00000  -0.00030  -0.00030   1.90180
    R8        4.16297   0.00031   0.00000   0.00000  -0.00000   4.16297
[...]
 ! A19   A(2,4,3)              100.1239         -DE/DX =   -0.0004              !
 ! A20   A(2,4,7)              118.0887         -DE/DX =    0.0                 !
 ! A21   A(2,4,8)              118.0887         -DE/DX =    0.0                 !
 ! A22   A(3,4,7)               94.1879         -DE/DX =    0.0002              !
 ! A23   A(3,4,8)               94.1879         -DE/DX =    0.0002              !
 ! A24   A(7,4,8)              120.4333         -DE/DX =    0.0001              !
 ! D1    D(3,1,2,4)              0.0            -DE/DX =    0.0                 !
 ! D2    D(3,1,2,9)           -120.1143         -DE/DX =    0.0                 !
 ! D3    D(3,1,2,10)           120.1143         -DE/DX =    0.0                 !
 ! D4    D(11,1,2,4)           119.1023         -DE/DX =    0.0                 !
 ! D5    D(11,1,2,9)            -1.012          -DE/DX =    0.0                 !
 ! D6    D(11,1,2,10)         -120.7834         -DE/DX =    0.0001              !
 ! D7    D(12,1,2,4)          -119.1023         -DE/DX =    0.0                 !
 ! D8    D(12,1,2,9)           120.7834         -DE/DX =   -0.0001              !
 ! D9    D(12,1,2,10)            1.012          -DE/DX =    0.0                 !
 ! D10   D(2,1,3,4)              0.0            -DE/DX =    0.0                 !
 ! D11   D(2,1,3,5)           -102.9436         -DE/DX =    0.0001              !
 ! D12   D(2,1,3,6)            102.9436         -DE/DX =   -0.0001              !
 ! D13   D(11,1,3,4)           -97.8716         -DE/DX =   -0.0001              !
 ! D14   D(11,1,3,5)           159.1849         -DE/DX =    0.0                 !
 ! D15   D(11,1,3,6)             5.072          -DE/DX =   -0.0001              !
 ! D16   D(12,1,3,4)            97.8716         -DE/DX =    0.0001              !
 ! D17   D(12,1,3,5)            -5.072          -DE/DX =    0.0001              !
 ! D18   D(12,1,3,6)          -159.1849         -DE/DX =    0.0                 !
 ! D19   D(1,2,4,3)              0.0            -DE/DX =    0.0                 !
 ! D20   D(1,2,4,7)            100.3337         -DE/DX =    0.0                 !
 ! D21   D(1,2,4,8)           -100.3337         -DE/DX =    0.0                 !
 ! D22   D(9,2,4,3)            101.8413         -DE/DX =    0.0                 !
 ! D23   D(9,2,4,7)           -157.825          -DE/DX =    0.0                 !
 ! D24   D(9,2,4,8)              1.5076         -DE/DX =    0.0                 !
 ! D25   D(10,2,4,3)          -101.8413         -DE/DX =    0.0                 !
 ! D26   D(10,2,4,7)            -1.5076         -DE/DX =    0.0                 !
 ! D27   D(10,2,4,8)           157.825          -DE/DX =    0.0                 !
 ! D28   D(1,3,4,2)              0.0            -DE/DX =    0.0                 !
 ! D29   D(1,3,4,7)           -119.5142         -DE/DX =    0.0001              !
 ! D30   D(1,3,4,8)            119.5142         -DE/DX =   -0.0001              !
 ! D31   D(5,3,4,2)            120.6566         -DE/DX =    0.0                 !
 ! D32   D(5,3,4,7)              1.1424         -DE/DX =    0.0                 !
 ! D33   D(5,3,4,8)           -119.8292         -DE/DX =   -0.0001              !
 ! D34   D(6,3,4,2)           -120.6566         -DE/DX =    0.0                 !
 ! D35   D(6,3,4,7)            119.8292         -DE/DX =    0.0001              !
 ! D36   D(6,3,4,8)             -1.1424         -DE/DX =    0.0                 !
 --------------------------------------------------------------------------------
 Lowest energy point so far.  Saving SCF results.
 GradGradGradGradGradGradGradGradGradGradGradGradGradGradGradGradGradGrad

 Summary of Optimized Potential Surface Scan
                           1         2
     Eigenvalues --  -164.06313-164.06302
           R1           2.20295   2.30295
           R2           1.45144   1.43781
           R3           1.19602   1.19457
           R4           1.19602   1.19457
           R5           1.45171   1.44082
           R6           1.00656   1.00575
           R7           1.00656   1.00575
           R8           2.20295   2.20295
           R9           1.00654   1.00638
           R10          1.00654   1.00638
           R11          1.19593   1.19682
           R12          1.19593   1.19682
           A1          97.21946  95.84083
           A2          95.58435  94.09984
           A3          95.58435  94.09984
           A4         118.04465 118.38094
           A5         118.04465 118.38094
           A6         120.54371 121.27075
           A7          82.78191  80.15552
           A8         106.58440 105.17038
           A9         106.58440 105.17038
           A10        120.50308 121.45672
           A11        120.50308 121.45672
           A12        112.63635 113.20707
           A13         82.78749  83.87971
           A14        120.48833 121.17402
           A15        120.48833 121.17402
           A16        106.57942 104.22574
           A17        106.57942 104.22574
           A18        112.66482 112.99450
           A19         97.21114 100.12394
           A20        117.96359 118.08868
           A21        117.96359 118.08868
           A22         95.56706  94.18785
           A23         95.56706  94.18785
           A24        120.72224 120.43334
           D1           0.00000   0.00000
           D2        -119.74421-120.11429
           D3         119.74421 120.11429
           D4         119.24613 119.10230
           D5          -0.49808  -1.01199
           D6        -121.00967-120.78341
           D7        -119.24613-119.10230
           D8         121.00967 120.78341
           D9           0.49808   1.01199
           D10          0.00000   0.00000
           D11       -105.02615-102.94356
           D12        105.02615 102.94356
           D13       -100.28933 -97.87158
           D14        154.68452 159.18486
           D15          4.73681   5.07197
           D16        100.28933  97.87158
           D17         -4.73681  -5.07197
           D18       -154.68452-159.18486
           D19          0.00000   0.00000
           D20        100.24644 100.33372
           D21       -100.24644-100.33372
           D22        105.02911 101.84129
           D23       -154.72445-157.82499
           D24          4.78268   1.50758
           D25       -105.02911-101.84129
           D26         -4.78268  -1.50758
           D27        154.72445 157.82499
           D28          0.00000   0.00000
           D29       -119.15811-119.51421
           D30        119.15811 119.51421
           D31        119.73020 120.65663
           D32          0.57209   1.14242
           D33       -121.11168-119.82916
           D34       -119.73020-120.65663
           D35        121.11168 119.82916
           D36         -0.57209  -1.14242
 Largest change from initial coordinates is atom    2       0.012 Angstoms.
 Leave Link  103 at Thu Mar  9 15:17:11 2017, MaxMem=  1127874560 cpu:         0.1
 (Enter /share/apps/g09RelE.01/g09/l202.exe)
                          Input orientation:                          
 ---------------------------------------------------------------------
 Center     Atomic      Atomic             Coordinates (Angstroms)
 Number     Number       Type             X           Y           Z
 ---------------------------------------------------------------------
      1          5           0       -0.029199   -1.276490    0.000000
      2          7           0        1.305390    0.600328    0.000000
      3          7           0       -1.279671   -0.566831    0.000000
      4          5           0        0.005710    1.222244    0.000000
      5          1           0       -1.827932   -0.477450    0.839180
      6          1           0       -1.827932   -0.477450   -0.839180
      7          1           0       -0.420845    1.636326    1.038731
      8          1           0       -0.420845    1.636326   -1.038731
      9          1           0        1.854823    0.532584   -0.839682
     10          1           0        1.854823    0.532584    0.839682
     11          1           0        0.393593   -1.681931   -1.041091
     12          1           0        0.393593   -1.681931    1.041091
 ---------------------------------------------------------------------
                    Distance matrix (angstroms):
                    1          2          3          4          5
     1  B    0.000000
     2  N    2.302949   0.000000
     3  N    1.437809   2.836336   0.000000
     4  B    2.498979   1.440815   2.202951   0.000000
     5  H    2.139657   3.418119   1.006381   2.637314   0.000000
     6  H    2.139657   3.418119   1.006381   2.637314   1.678361
     7  H    3.117186   2.265423   2.582720   1.196818   2.547108
     8  H    3.117186   2.265423   2.582720   1.196818   3.158242
     9  H    2.743602   1.005749   3.426198   2.144742   4.171502
    10  H    2.743602   1.005749   3.426198   2.144742   3.818750
    11  H    1.194573   2.669073   2.264317   3.109431   3.149821
    12  H    1.194573   2.669073   2.264317   3.109431   2.535097
                    6          7          8          9         10
     6  H    0.000000
     7  H    3.158242   0.000000
     8  H    2.547108   2.077461   0.000000
     9  H    3.818750   3.150452   2.537033   0.000000
    10  H    4.171502   2.537033   3.150452   1.679363   0.000000
    11  H    2.535097   3.999975   3.416745   2.660796   3.252164
    12  H    3.149821   3.416745   3.999975   3.252164   2.660796
                   11         12
    11  H    0.000000
    12  H    2.082181   0.000000
 Stoichiometry    B2H8N2
 Framework group  CS[SG(B2N2),X(H8)]
 Deg. of freedom    17
 Full point group                 CS      NOp   2
 RotChk:  IX=3 Diff= 0.00D+00
 Largest Abelian subgroup         CS      NOp   2
 Largest concise Abelian subgroup CS      NOp   2
                         Standard orientation:                         
 ---------------------------------------------------------------------
 Center     Atomic      Atomic             Coordinates (Angstroms)
 Number     Number       Type             X           Y           Z
 ---------------------------------------------------------------------
      1          5           0        0.027192    1.276027    0.000000
      2          7           0       -1.301595   -0.604903    0.000000
      3          7           0        1.279849    0.570234    0.000000
      4          5           0        0.000000   -1.222803    0.000000
      5          1           0        1.828384    0.482546    0.839180
      6          1           0        1.828384    0.482546   -0.839180
      7          1           0        0.427832   -1.635565    1.038731
      8          1           0        0.427832   -1.635565   -1.038731
      9          1           0       -1.851234   -0.538856   -0.839682
     10          1           0       -1.851234   -0.538856    0.839682
     11          1           0       -0.396851    1.680161   -1.041091
     12          1           0       -0.396851    1.680161    1.041091
 ---------------------------------------------------------------------
 Rotational constants (GHZ):     11.7493983      5.7047298      4.3120205
 Leave Link  202 at Thu Mar  9 15:17:11 2017, MaxMem=  1127874560 cpu:         0.0
 (Enter /share/apps/g09RelE.01/g09/l601.exe)
 Copying SCF densities to generalized density rwf, IOpCl= 0 IROHF=0.

 **********************************************************************

            Population analysis using the SCF density.

 **********************************************************************

 Orbital symmetries:
       Occupied  (A') (A') (A') (A') (A') (A') (A') (A") (A') (A")
                 (A') (A') (A') (A") (A") (A')
       Virtual   (A') (A') (A') (A") (A') (A") (A') (A') (A") (A')
                 (A") (A') (A") (A') (A') (A") (A') (A') (A') (A")
                 (A") (A') (A') (A') (A') (A') (A") (A") (A') (A')
                 (A") (A") (A') (A') (A') (A") (A') (A") (A') (A')
                 (A") (A") (A') (A') (A") (A") (A') (A') (A') (A")
                 (A") (A") (A') (A") (A') (A') (A") (A') (A") (A')
                 (A') (A") (A") (A') (A') (A') (A") (A') (A') (A")
                 (A') (A') (A') (A") (A') (A") (A') (A") (A") (A')
                 (A') (A") (A") (A') (A') (A') (A') (A") (A') (A")
                 (A') (A') (A") (A") (A') (A') (A') (A') (A") (A")
                 (A') (A') (A') (A')
 The electronic state is 1-A'.
 Alpha  occ. eigenvalues --  -14.42314 -14.41303  -6.84624  -6.83966  -0.97282
 Alpha  occ. eigenvalues --   -0.95197  -0.62414  -0.60182  -0.60024  -0.58376
 Alpha  occ. eigenvalues --   -0.47966  -0.47390  -0.42509  -0.40330  -0.39487
 Alpha  occ. eigenvalues --   -0.32323
 Alpha virt. eigenvalues --    0.08393   0.11038   0.14465   0.15273   0.16494
 Alpha virt. eigenvalues --    0.19464   0.20532   0.21019   0.23689   0.24611
 Alpha virt. eigenvalues --    0.26988   0.27988   0.34026   0.34270   0.39227
 Alpha virt. eigenvalues --    0.40616   0.46029   0.47601   0.50324   0.52622
 Alpha virt. eigenvalues --    0.54839   0.54969   0.55424   0.59893   0.62992
 Alpha virt. eigenvalues --    0.65740   0.65796   0.69947   0.78017   0.78398
 Alpha virt. eigenvalues --    0.78469   0.80879   0.82993   0.91356   0.93986
 Alpha virt. eigenvalues --    1.02533   1.02859   1.03796   1.05897   1.15166
 Alpha virt. eigenvalues --    1.21501   1.26247   1.26255   1.30795   1.32529
 Alpha virt. eigenvalues --    1.35302   1.39257   1.46329   1.64237   1.65887
 Alpha virt. eigenvalues --    1.69407   1.70699   1.72494   1.74887   1.76411
 Alpha virt. eigenvalues --    1.78491   1.82905   1.83199   1.89305   1.95329
 Alpha virt. eigenvalues --    1.99954   2.02635   2.03481   2.04094   2.09641
 Alpha virt. eigenvalues --    2.12346   2.14480   2.18269   2.20245   2.20346
 Alpha virt. eigenvalues --    2.30223   2.32727   2.50340   2.52648   2.53406
 Alpha virt. eigenvalues --    2.56964   2.59595   2.61575   2.62795   2.65113
 Alpha virt. eigenvalues --    2.68584   2.75483   2.78799   2.81189   2.81324
 Alpha virt. eigenvalues --    2.91715   2.93487   2.99121   3.05122   3.07983
 Alpha virt. eigenvalues --    3.09434   3.20333   3.30393   3.31902   3.96589
 Alpha virt. eigenvalues --    4.03592   4.68363   4.81641   4.86414   4.87277
 Alpha virt. eigenvalues --   14.74809  14.79725  35.72274  35.75767
          Condensed to atoms (all electrons):
               1          2          3          4          5          6
     1  B    3.585529   0.066106   0.411727  -0.008206  -0.032950  -0.032950
     2  N    0.066106   6.394330  -0.044541   0.417934   0.001302   0.001302
     3  N    0.411727  -0.044541   6.393666   0.070799   0.375181   0.375181
     4  B   -0.008206   0.417934   0.070799   3.577164  -0.003771  -0.003771
     5  H   -0.032950   0.001302   0.375181  -0.003771   0.461142  -0.033239
     6  H   -0.032950   0.001302   0.375181  -0.003771  -0.033239   0.461142
     7  H   -0.004128  -0.022874  -0.016450   0.436880  -0.002280   0.001231
     8  H   -0.004128  -0.022874  -0.016450   0.436880   0.001231  -0.002280
     9  H   -0.002251   0.376537   0.001197  -0.034637  -0.000109   0.000004
    10  H   -0.002251   0.376537   0.001197  -0.034637   0.000004  -0.000109
    11  H    0.435413  -0.012574  -0.022268  -0.003861   0.005804  -0.010016
    12  H    0.435413  -0.012574  -0.022268  -0.003861  -0.010016   0.005804
               7          8          9         10         11         12
     1  B   -0.004128  -0.004128  -0.002251  -0.002251   0.435413   0.435413
     2  N   -0.022874  -0.022874   0.376537   0.376537  -0.012574  -0.012574
     3  N   -0.016450  -0.016450   0.001197   0.001197  -0.022268  -0.022268
     4  B    0.436880   0.436880  -0.034637  -0.034637  -0.003861  -0.003861
     5  H   -0.002280   0.001231  -0.000109   0.000004   0.005804  -0.010016
     6  H    0.001231  -0.002280   0.000004  -0.000109  -0.010016   0.005804
     7  H    0.695314  -0.024538   0.006033  -0.010259  -0.000546   0.001201
     8  H   -0.024538   0.695314  -0.010259   0.006033   0.001201  -0.000546
     9  H    0.006033  -0.010259   0.466205  -0.034116  -0.001680   0.000994
    10  H   -0.010259   0.006033  -0.034116   0.466205   0.000994  -0.001680
    11  H   -0.000546   0.001201  -0.001680   0.000994   0.682350  -0.024528
    12  H    0.001201  -0.000546   0.000994  -0.001680  -0.024528   0.682350
 Mulliken charges:
               1
     1  B    0.152677
     2  N   -0.518611
     3  N   -0.506973
     4  B    0.153087
     5  H    0.237701
     6  H    0.237701
     7  H   -0.059585
     8  H   -0.059585
     9  H    0.232082
    10  H    0.232082
    11  H   -0.050288
    12  H   -0.050288
 Sum of Mulliken charges =  -0.00000
 Mulliken charges with hydrogens summed into heavy atoms:
               1
     1  B    0.052102
     2  N   -0.054447
     3  N   -0.031571
     4  B    0.033916
 Electronic spatial extent (au):  <R**2>=            335.5102
 Charge=              0.0000 electrons
 Dipole moment (field-independent basis, Debye):
    X=              0.1563    Y=              0.2192    Z=             -0.0000  Tot=              0.2692
 Quadrupole moment (field-independent basis, Debye-Ang):
   XX=            -20.8115   YY=            -33.1351   ZZ=            -26.5586
   XY=              2.4627   XZ=              0.0000   YZ=              0.0000
 Traceless Quadrupole moment (field-independent basis, Debye-Ang):
   XX=              6.0236   YY=             -6.3000   ZZ=              0.2765
   XY=              2.4627   XZ=              0.0000   YZ=              0.0000
 Octapole moment (field-independent basis, Debye-Ang**2):
  XXX=              0.0522  YYY=              0.6878  ZZZ=             -0.0000  XYY=             -0.0189
  XXY=             -0.1735  XXZ=              0.0000  XZZ=             -0.0989  YZZ=              0.0268
  YYZ=             -0.0000  XYZ=              0.0000
 Hexadecapole moment (field-independent basis, Debye-Ang**3):
 XXXX=           -152.2529 YYYY=           -243.0152 ZZZZ=            -66.0562 XXXY=            -16.1544
 XXXZ=             -0.0000 YYYX=            -20.1120 YYYZ=              0.0000 ZZZX=              0.0000
 ZZZY=              0.0000 XXYY=            -74.4442 XXZZ=            -28.7777 YYZZ=            -54.5827
 XXYZ=              0.0000 YYXZ=              0.0000 ZZXY=             -3.0825
 N-N= 1.142113619918D+02 E-N=-6.097116172238D+02  KE= 1.633339637024D+02
 Symmetry A'   KE= 1.549498477323D+02
 Symmetry A"   KE= 8.384115970160D+00
 No NMR shielding tensors so no spin-rotation constants.
 Leave Link  601 at Thu Mar  9 15:17:11 2017, MaxMem=  1127874560 cpu:         0.9
 (Enter /share/apps/g09RelE.01/g09/l9999.exe)
 1\1\GINC-COMPUTE-0-8\Scan\RwB97XD\6-311G(d,p)\B2H8N2\BERTA\09-Mar-2017
 \0\\#P RwB97XD/6-311G(d,p)int(grid=ultrafine) opt(modred,loose)\\AB2-m
 ult-scan7_1.gjf\\0,1\B,-0.0291988938,-1.2764902845,0.0000000001\N,1.30
 53901439,0.6003276831,0.0000000001\N,-1.2796707096,-0.566831202,0.0000
 000001\B,0.0057098697,1.2222443976,0.0000000001\H,-1.8279319965,-0.477
 4497041,0.8391803867\H,-1.8279319965,-0.4774497041,-0.8391803865\H,-0.
 4208453833,1.636325917,1.0387305906\H,-0.4208453833,1.636325917,-1.038
 7305905\H,1.8548232242,0.5325836206,-0.8396815412\H,1.8548232242,0.532
 5836206,0.8396815413\H,0.3935934506,-1.6819311305,-1.0410905878\H,0.39
 35934506,-1.6819311305,1.0410905879\\Version=ES64L-G09RevE.01\State=1-
 A'\HF=-164.0631259,-164.0630237\RMSD=7.678e-09,6.358e-09\PG=CS [SG(B2N
 2),X(H8)]\\@


 IT IS A CAPITAL MISTAKE TO THEORIZE BEFORE ONE HAS
 DATA.  INSENSIBLY ONE BEGINS TO TWIST FACTS TO SUIT
 THEORIES RATHER THAN THEORIES TO SUIT FACTS.

                                         -- SHERLOCK HOLMES
 Job cpu time:       0 days  0 hours  9 minutes  9.7 seconds.
 File lengths (MBytes):  RWF=      9 Int=      0 D2E=      0 Chk=      3 Scr=      1
 Normal termination of Gaussian 09 at Thu Mar  9 15:17:11 2017.
