compute-0-15
 Entering Gaussian System, Link 0=g09
 Initial command:
 /share/apps/g09RelE.01/g09/l1.exe "/state/partition1/berta/Gau-15072.inp" -scrdir="/state/partition1/berta/"
 Entering Link 1 = /share/apps/g09RelE.01/g09/l1.exe PID=     15073.
  
 Copyright (c) 1988,1990,1992,1993,1995,1998,2003,2009,2015,
            Gaussian, Inc.  All Rights Reserved.
  
 This is part of the Gaussian(R) 09 program.  It is based on
 the Gaussian(R) 03 system (copyright 2003, Gaussian, Inc.),
 the Gaussian(R) 98 system (copyright 1998, Gaussian, Inc.),
 the Gaussian(R) 94 system (copyright 1995, Gaussian, Inc.),
 the Gaussian 92(TM) system (copyright 1992, Gaussian, Inc.),
 the Gaussian 90(TM) system (copyright 1990, Gaussian, Inc.),
 the Gaussian 88(TM) system (copyright 1988, Gaussian, Inc.),
 the Gaussian 86(TM) system (copyright 1986, Carnegie Mellon
 University), and the Gaussian 82(TM) system (copyright 1983,
 Carnegie Mellon University). Gaussian is a federally registered
 trademark of Gaussian, Inc.
  
 This software contains proprietary and confidential information,
 including trade secrets, belonging to Gaussian, Inc.
  
 This software is provided under written license and may be
 used, copied, transmitted, or stored only in accord with that
 written license.
  
 The following legend is applicable only to US Government
 contracts under FAR:
  
                    RESTRICTED RIGHTS LEGEND
  
 Use, reproduction and disclosure by the US Government is
 subject to restrictions as set forth in subparagraphs (a)
 and (c) of the Commercial Computer Software - Restricted
 Rights clause in FAR 52.227-19.
  
 Gaussian, Inc.
 340 Quinnipiac St., Bldg. 40, Wallingford CT 06492
  
  
 ---------------------------------------------------------------
 Warning -- This program may not be used in any manner that
 competes with the business of Gaussian, Inc. or will provide
 assistance to any competitor of Gaussian, Inc.  The licensee
 of this program is prohibited from giving any competitor of
 Gaussian, Inc. access to this program.  By using this program,
 the user acknowledges that Gaussian, Inc. is engaged in the
 business of creating and licensing software in the field of
 computational chemistry and represents and warrants to the
 licensee that it is not a competitor of Gaussian, Inc. and that
 it will not use this program in any manner prohibited above.
 ---------------------------------------------------------------
  

 Cite this work as:
 Gaussian 09, Revision E.01,
 M. J. Frisch, G. W. Trucks, H. B. Schlegel, G. E. Scuseria, 
 M. A. Robb, J. R. Cheeseman, G. Scalmani, V. Barone, B. Mennucci, 
 G. A. Petersson, H. Nakatsuji, M. Caricato, X. Li, H. P. Hratchian, 
 A. F. Izmaylov, J. Bloino, G. Zheng, J. L. Sonnenberg, M. Hada, 
 M. Ehara, K. Toyota, R. Fukuda, J. Hasegawa, M. Ishida, T. Nakajima, 
 Y. Honda, O. Kitao, H. Nakai, T. Vreven, J. A. Montgomery, Jr., 
 J. E. Peralta, F. Ogliaro, M. Bearpark, J. J. Heyd, E. Brothers, 
 K. N. Kudin, V. N. Staroverov, T. Keith, R. Kobayashi, J. Normand, 
 K. Raghavachari, A. Rendell, J. C. Burant, S. S. Iyengar, J. Tomasi, 
 M. Cossi, N. Rega, J. M. Millam, M. Klene, J. E. Knox, J. B. Cross, 
 V. Bakken, C. Adamo, J. Jaramillo, R. Gomperts, R. E. Stratmann, 
 O. Yazyev, A. J. Austin, R. Cammi, C. Pomelli, J. W. Ochterski, 
 R. L. Martin, K. Morokuma, V. G. Zakrzewski, G. A. Voth, 
 P. Salvador, J. J. Dannenberg, S. Dapprich, A. D. Daniels, 
 O. Farkas, J. B. Foresman, J. V. Ortiz, J. Cioslowski, 
 and D. J. Fox, Gaussian, Inc., Wallingford CT, 2013.
 
 ******************************************
 Gaussian 09:  ES64L-G09RevE.01 30-Nov-2015
                 9-Mar-2017 
 ******************************************
 %chk=AB-AB-NHscan.chk
 %nproc=4
 Will use up to    4 processors via shared memory.
 %mem=4276MB
 -----------------------------------------------------------
 #P RwB97XD/6-311G(d,p)int(grid=ultrafine) opt(modred,loose)
 -----------------------------------------------------------
 1/7=-1,14=-1,18=120,19=15,26=4,38=1/1,3;
 2/9=110,12=2,17=6,18=5,40=1/2;
 3/5=4,6=6,7=101,11=2,16=1,25=1,30=1,71=1,74=-58,75=-5,116=1/1,2,3;
 4//1;
 5/5=2,38=5/2;
 6/7=2,8=2,9=2,10=2,28=1/1;
 7//1,2,3,16;
 1/7=-1,14=-1,18=20,19=15,26=4/3(2);
 2/9=110/2;
 99//99;
 2/9=110/2;
 3/5=4,6=6,7=101,11=2,16=1,25=1,30=1,71=1,74=-58,75=-5,116=1/1,2,3;
 4/5=5,16=3,69=1/1;
 5/5=2,38=5/2;
 7//1,2,3,16;
 1/7=-1,14=-1,18=20,19=15,26=4/3(-5);
 2/9=110/2;
 6/7=2,8=2,9=2,10=2,19=2,28=1/1;
 99/9=1/99;
 Leave Link    1 at Thu Mar  9 09:05:27 2017, MaxMem=   560463872 cpu:         0.2
 (Enter /share/apps/g09RelE.01/g09/l101.exe)
 --------------------
 AB2-mult-scan5_1.gjf
 --------------------
 Symbolic Z-matrix:
 Charge =  0 Multiplicity = 1
 B                     0.00076  -1.22205   0. 
 N                     1.23873   0.35251   0. 
 N                    -1.23877  -0.35224   0. 
 B                     0.        1.22169   0. 
 H                    -1.81463  -0.37609   0.82848 
 H                    -1.81463  -0.37609  -0.82848 
 H                    -0.2717    1.76308   1.03357 
 H                    -0.2717    1.76308  -1.03357 
 H                     1.81515   0.3768   -0.82818 
 H                     1.81515   0.3768    0.82818 
 H                     0.26944  -1.76384  -1.03455 
 H                     0.26944  -1.76384   1.03455 
 
 Add virtual bond connecting atoms N2         and B1         Dist= 3.79D+00.
 Add virtual bond connecting atoms B4         and N3         Dist= 3.79D+00.
 The following ModRedundant input section has been read:
 B       1       2 S   1 0.1000                                                
 B       3       4 F                                                           
 
 NAtoms=     12 NQM=       12 NQMF=       0 NMMI=      0 NMMIF=      0
                NMic=       0 NMicF=      0.
                    Isotopes and Nuclear Properties:
 (Nuclear quadrupole moments (NQMom) in fm**2, nuclear magnetic moments (NMagM)
  in nuclear magnetons)

  Atom         1           2           3           4           5           6           7           8           9          10
 IAtWgt=          11          14          14          11           1           1           1           1           1           1
 AtmWgt=  11.0093053  14.0030740  14.0030740  11.0093053   1.0078250   1.0078250   1.0078250   1.0078250   1.0078250   1.0078250
 NucSpn=           3           2           2           3           1           1           1           1           1           1
 AtZEff=   0.0000000   0.0000000   0.0000000   0.0000000   0.0000000   0.0000000   0.0000000   0.0000000   0.0000000   0.0000000
 NQMom=    4.0590000   2.0440000   2.0440000   4.0590000   0.0000000   0.0000000   0.0000000   0.0000000   0.0000000   0.0000000
 NMagM=    2.6886370   0.4037610   0.4037610   2.6886370   2.7928460   2.7928460   2.7928460   2.7928460   2.7928460   2.7928460
 AtZNuc=   5.0000000   7.0000000   7.0000000   5.0000000   1.0000000   1.0000000   1.0000000   1.0000000   1.0000000   1.0000000

  Atom        11          12
 IAtWgt=           1           1
 AtmWgt=   1.0078250   1.0078250
 NucSpn=           1           1
 AtZEff=   0.0000000   0.0000000
 NQMom=    0.0000000   0.0000000
 NMagM=    2.7928460   2.7928460
 AtZNuc=   1.0000000   1.0000000
 Leave Link  101 at Thu Mar  9 09:05:27 2017, MaxMem=   560463872 cpu:         0.6
 (Enter /share/apps/g09RelE.01/g09/l103.exe)

 GradGradGradGradGradGradGradGradGradGradGradGradGradGradGradGradGradGrad
 Berny optimization.
 Initialization pass.
                           ----------------------------
                           !    Initial Parameters    !
                           ! (Angstroms and Degrees)  !
 --------------------------                            --------------------------
 ! Name  Definition              Value          Derivative Info.                !
 --------------------------------------------------------------------------------
 ! R1    R(1,2)                  2.003          Scan                            !
 ! R2    R(1,3)                  1.5143         estimate D2E/DX2                !
 ! R3    R(1,11)                 1.1983         estimate D2E/DX2                !
 ! R4    R(1,12)                 1.1983         estimate D2E/DX2                !
 ! R5    R(2,4)                  1.5132         estimate D2E/DX2                !
 ! R6    R(2,9)                  1.0093         estimate D2E/DX2                !
 ! R7    R(2,10)                 1.0093         estimate D2E/DX2                !
 ! R8    R(3,4)                  2.003          Frozen                          !
 ! R9    R(3,5)                  1.0092         estimate D2E/DX2                !
 ! R10   R(3,6)                  1.0092         estimate D2E/DX2                !
 ! R11   R(4,7)                  1.198          estimate D2E/DX2                !
 ! R12   R(4,8)                  1.198          estimate D2E/DX2                !
 ! A1    A(2,1,3)               93.1175         estimate D2E/DX2                !
 ! A2    A(2,1,11)             102.5235         estimate D2E/DX2                !
 ! A3    A(2,1,12)             102.5235         estimate D2E/DX2                !
 ! A4    A(3,1,11)             116.3103         estimate D2E/DX2                !
 ! A5    A(3,1,12)             116.3103         estimate D2E/DX2                !
 ! A6    A(11,1,12)            119.3824         estimate D2E/DX2                !
 ! A7    A(1,2,4)               86.8804         estimate D2E/DX2                !
 ! A8    A(1,2,9)              111.8323         estimate D2E/DX2                !
 ! A9    A(1,2,10)             111.8323         estimate D2E/DX2                !
 ! A10   A(4,2,9)              116.9797         estimate D2E/DX2                !
 ! A11   A(4,2,10)             116.9797         estimate D2E/DX2                !
 ! A12   A(9,2,10)             110.2761         estimate D2E/DX2                !
 ! A13   A(1,3,4)               86.8533         estimate D2E/DX2                !
 ! A14   A(1,3,5)              116.9679         estimate D2E/DX2                !
 ! A15   A(1,3,6)              116.9679         estimate D2E/DX2                !
 ! A16   A(4,3,5)              111.8057         estimate D2E/DX2                !
 ! A17   A(4,3,6)              111.8057         estimate D2E/DX2                !
 ! A18   A(5,3,6)              110.3496         estimate D2E/DX2                !
 ! A19   A(2,4,3)               93.1487         estimate D2E/DX2                !
 ! A20   A(2,4,7)              116.4374         estimate D2E/DX2                !
 ! A21   A(2,4,8)              116.4374         estimate D2E/DX2                !
 ! A22   A(3,4,7)              102.4066         estimate D2E/DX2                !
 ! A23   A(3,4,8)              102.4066         estimate D2E/DX2                !
 ! A24   A(7,4,8)              119.2539         estimate D2E/DX2                !
 ! D1    D(3,1,2,4)              0.0            estimate D2E/DX2                !
 ! D2    D(3,1,2,9)           -117.8798         estimate D2E/DX2                !
 ! D3    D(3,1,2,10)           117.8798         estimate D2E/DX2                !
 ! D4    D(11,1,2,4)           117.8272         estimate D2E/DX2                !
 ! D5    D(11,1,2,9)            -0.0526         estimate D2E/DX2                !
 ! D6    D(11,1,2,10)         -124.2929         estimate D2E/DX2                !
 ! D7    D(12,1,2,4)          -117.8272         estimate D2E/DX2                !
 ! D8    D(12,1,2,9)           124.2929         estimate D2E/DX2                !
 ! D9    D(12,1,2,10)            0.0526         estimate D2E/DX2                !
 ! D10   D(2,1,3,4)              0.0            estimate D2E/DX2                !
 ! D11   D(2,1,3,5)           -112.9195         estimate D2E/DX2                !
 ! D12   D(2,1,3,6)            112.9195         estimate D2E/DX2                !
 ! D13   D(11,1,3,4)          -105.616          estimate D2E/DX2                !
 ! D14   D(11,1,3,5)           141.4645         estimate D2E/DX2                !
 ! D15   D(11,1,3,6)             7.3035         estimate D2E/DX2                !
 ! D16   D(12,1,3,4)           105.616          estimate D2E/DX2                !
 ! D17   D(12,1,3,5)            -7.3035         estimate D2E/DX2                !
 ! D18   D(12,1,3,6)          -141.4645         estimate D2E/DX2                !
 ! D19   D(1,2,4,3)              0.0            estimate D2E/DX2                !
 ! D20   D(1,2,4,7)            105.5248         estimate D2E/DX2                !
 ! D21   D(1,2,4,8)           -105.5248         estimate D2E/DX2                !
 ! D22   D(9,2,4,3)            112.9658         estimate D2E/DX2                !
 ! D23   D(9,2,4,7)           -141.5094         estimate D2E/DX2                !
 ! D24   D(9,2,4,8)              7.4411         estimate D2E/DX2                !
 ! D25   D(10,2,4,3)          -112.9658         estimate D2E/DX2                !
 ! D26   D(10,2,4,7)            -7.4411         estimate D2E/DX2                !
 ! D27   D(10,2,4,8)           141.5094         estimate D2E/DX2                !
 ! D28   D(1,3,4,2)              0.0            estimate D2E/DX2                !
 ! D29   D(1,3,4,7)           -117.9471         estimate D2E/DX2                !
 ! D30   D(1,3,4,8)            117.9471         estimate D2E/DX2                !
 ! D31   D(5,3,4,2)            117.8516         estimate D2E/DX2                !
 ! D32   D(5,3,4,7)             -0.0955         estimate D2E/DX2                !
 ! D33   D(5,3,4,8)           -124.2013         estimate D2E/DX2                !
 ! D34   D(6,3,4,2)           -117.8516         estimate D2E/DX2                !
 ! D35   D(6,3,4,7)            124.2013         estimate D2E/DX2                !
 ! D36   D(6,3,4,8)              0.0955         estimate D2E/DX2                !
 --------------------------------------------------------------------------------
 Trust Radius=3.00D-01 FncErr=1.00D-07 GrdErr=1.00D-06
 Number of optimizations in scan=   2
 Number of steps in this run=     82 maximum allowed number of steps=    100.
 GradGradGradGradGradGradGradGradGradGradGradGradGradGradGradGradGradGrad

 Leave Link  103 at Thu Mar  9 09:05:27 2017, MaxMem=   560463872 cpu:         0.0
 (Enter /share/apps/g09RelE.01/g09/l202.exe)
                          Input orientation:                          
 ---------------------------------------------------------------------
 Center     Atomic      Atomic             Coordinates (Angstroms)
 Number     Number       Type             X           Y           Z
 ---------------------------------------------------------------------
      1          5           0        0.000758   -1.222046    0.000000
      2          7           0        1.238730    0.352513    0.000000
      3          7           0       -1.238773   -0.352242    0.000000
      4          5           0        0.000000    1.221688    0.000000
      5          1           0       -1.814629   -0.376089    0.828480
      6          1           0       -1.814629   -0.376089   -0.828480
      7          1           0       -0.271700    1.763076    1.033574
      8          1           0       -0.271700    1.763076   -1.033574
      9          1           0        1.815147    0.376795   -0.828178
     10          1           0        1.815147    0.376795    0.828178
     11          1           0        0.269439   -1.763837   -1.034546
     12          1           0        0.269439   -1.763837    1.034546
 ---------------------------------------------------------------------
                    Distance matrix (angstroms):
                    1          2          3          4          5
     1  B    0.000000
     2  N    2.002951   0.000000
     3  N    1.514264   2.575791   0.000000
     4  B    2.443734   1.513247   2.002951   0.000000
     5  H    2.167407   3.246574   1.009236   2.555807   0.000000
     6  H    2.167407   3.246574   1.009236   2.555807   1.656960
     7  H    3.170719   2.310706   2.545206   1.197997   2.645509
     8  H    3.170719   2.310706   2.545206   1.197997   3.228607
     9  H    2.556204   1.009319   3.247122   2.166675   4.060372
    10  H    2.556204   1.009319   3.247122   2.166675   3.707035
    11  H    1.198337   2.547302   2.310322   3.171158   3.120905
    12  H    1.198337   2.547302   2.310322   3.171158   2.512299
                    6          7          8          9         10
     6  H    0.000000
     7  H    3.228607   0.000000
     8  H    2.645509   2.067148   0.000000
     9  H    3.707035   3.121350   2.513741   0.000000
    10  H    4.060372   2.513741   3.121350   1.656356   0.000000
    11  H    2.512299   4.124205   3.568185   2.648416   3.231294
    12  H    3.120905   3.568185   4.124205   3.231294   2.648416
                   11         12
    11  H    0.000000
    12  H    2.069092   0.000000
 Stoichiometry    B2H8N2
 Framework group  CS[SG(B2N2),X(H8)]
 Deg. of freedom    17
 Full point group                 CS      NOp   2
 Largest Abelian subgroup         CS      NOp   2
 Largest concise Abelian subgroup CS      NOp   2
                         Standard orientation:                         
 ---------------------------------------------------------------------
 Center     Atomic      Atomic             Coordinates (Angstroms)
 Number     Number       Type             X           Y           Z
 ---------------------------------------------------------------------
      1          5           0        0.000758   -1.222046    0.000000
      2          7           0        1.238730    0.352513    0.000000
      3          7           0       -1.238773   -0.352242    0.000000
      4          5           0        0.000000    1.221688    0.000000
      5          1           0       -1.814629   -0.376089    0.828480
      6          1           0       -1.814629   -0.376089   -0.828480
      7          1           0       -0.271700    1.763076    1.033574
      8          1           0       -0.271700    1.763076   -1.033574
      9          1           0        1.815147    0.376795   -0.828178
     10          1           0        1.815147    0.376795    0.828178
     11          1           0        0.269439   -1.763837   -1.034546
     12          1           0        0.269439   -1.763837    1.034546
 ---------------------------------------------------------------------
 Rotational constants (GHZ):     10.8539963      6.8666730      4.7674020
 Leave Link  202 at Thu Mar  9 09:05:27 2017, MaxMem=   560463872 cpu:         0.0
 (Enter /share/apps/g09RelE.01/g09/l301.exe)
 Standard basis: 6-311G(d,p) (5D, 7F)
 Ernie: Thresh=  0.10000D-02 Tol=  0.10000D-05 Strict=F.
 There are    80 symmetry adapted cartesian basis functions of A'  symmetry.
 There are    44 symmetry adapted cartesian basis functions of A"  symmetry.
 There are    76 symmetry adapted basis functions of A'  symmetry.
 There are    44 symmetry adapted basis functions of A"  symmetry.
   120 basis functions,   192 primitive gaussians,   124 cartesian basis functions
    16 alpha electrons       16 beta electrons
       nuclear repulsion energy       116.3417435539 Hartrees.
 IExCor= 4639 DFT=T Ex+Corr=wB97XD ExCW=0 ScaHFX=  1.000000
 ScaDFX=  1.000000  1.000000  1.000000  1.000000 ScalE2=  1.000000  1.000000
 IRadAn=      5 IRanWt=     -1 IRanGd=            0 ICorTp=0 IEmpDi=121
  HFx wShort=  0.000000 wLong=  0.200000 cFull=  0.222036 cShort=  0.000000 cLong=  0.777964
  DFx wShort=  0.000000 wLong=  0.200000 cFull=  0.000000 cShort=  0.000000 cLong=  1.000000
 NAtoms=   12 NActive=   12 NUniq=    8 SFac= 2.25D+00 NAtFMM=   60 NAOKFM=F Big=F
 Integral buffers will be    131072 words long.
 Raffenetti 2 integral format.
 Two-electron integral symmetry is turned on.
 R6Disp:  Grimme-D2 Dispersion energy=       -0.0054695653 Hartrees.
 Nuclear repulsion after empirical dispersion term =      116.3362739886 Hartrees.
 Leave Link  301 at Thu Mar  9 09:05:27 2017, MaxMem=   560463872 cpu:         0.2
 (Enter /share/apps/g09RelE.01/g09/l302.exe)
 NPDir=0 NMtPBC=     1 NCelOv=     1 NCel=       1 NClECP=     1 NCelD=      1
         NCelK=      1 NCelE2=     1 NClLst=     1 CellRange=     0.0.
 One-electron integrals computed using PRISM.
 One-electron integral symmetry used in STVInt
 NBasis=   120 RedAO= T EigKep=  5.55D-03  NBF=    76    44
 NBsUse=   120 1.00D-06 EigRej= -1.00D+00 NBFU=    76    44
 Precomputing XC quadrature grid using
 IXCGrd= 4 IRadAn=           5 IRanWt=          -1 IRanGd=           0 AccXCQ= 0.00D+00.
 Generated NRdTot=       0 NPtTot=           0 NUsed=           0 NTot=          32
 NSgBfM=   124   124   124   124   124 MxSgAt=    12 MxSgA2=    12.
 Leave Link  302 at Thu Mar  9 09:05:27 2017, MaxMem=   560463872 cpu:         0.7
 (Enter /share/apps/g09RelE.01/g09/l303.exe)
 DipDrv:  MaxL=1.
 Leave Link  303 at Thu Mar  9 09:05:27 2017, MaxMem=   560463872 cpu:         0.1
 (Enter /share/apps/g09RelE.01/g09/l401.exe)
 ExpMin= 9.89D-02 ExpMax= 6.29D+03 ExpMxC= 9.49D+02 IAcc=3 IRadAn=         5 AccDes= 0.00D+00
 Harris functional with IExCor= 4639 and IRadAn=       5 diagonalized for initial guess.
 HarFok:  IExCor= 4639 AccDes= 0.00D+00 IRadAn=         5 IDoV= 1 UseB2=F ITyADJ=14
 ICtDFT=  3500011 ScaDFX=  1.000000  1.000000  1.000000  1.000000
 FoFCou: FMM=F IPFlag=           0 FMFlag=      100000 FMFlg1=           0
         NFxFlg=           0 DoJE=T BraDBF=F KetDBF=T FulRan=T
         wScrn=  0.000000 ICntrl=     500 IOpCl=  0 I1Cent=   200000004 NGrid=           0
         NMat0=    1 NMatS0=      1 NMatT0=    0 NMatD0=    1 NMtDS0=    0 NMtDT0=    0
 Petite list used in FoFCou.
 Harris En= -156.200536680872    
 JPrj=0 DoOrth=F DoCkMO=F.
 Initial guess orbital symmetries:
       Occupied  (A') (A') (A') (A') (A') (A') (A') (A') (A") (A")
                 (A') (A') (A') (A") (A") (A')
       Virtual   (A') (A') (A") (A') (A') (A') (A") (A') (A") (A')
                 (A') (A") (A") (A') (A') (A") (A') (A') (A') (A")
                 (A") (A') (A') (A') (A") (A') (A') (A") (A") (A')
                 (A') (A") (A') (A') (A') (A") (A") (A') (A') (A')
                 (A") (A') (A") (A') (A") (A') (A") (A') (A") (A')
                 (A') (A") (A") (A') (A") (A') (A") (A') (A") (A')
                 (A') (A") (A') (A") (A") (A') (A') (A') (A') (A")
                 (A') (A') (A') (A') (A") (A") (A') (A") (A") (A')
                 (A') (A") (A") (A') (A') (A') (A") (A') (A') (A')
                 (A") (A') (A") (A") (A') (A') (A') (A') (A") (A")
                 (A') (A') (A') (A')
 The electronic state of the initial guess is 1-A'.
 Leave Link  401 at Thu Mar  9 09:05:28 2017, MaxMem=   560463872 cpu:         2.2
 (Enter /share/apps/g09RelE.01/g09/l502.exe)
 Closed shell SCF:
 Using DIIS extrapolation, IDIIS=  1040.
 Integral symmetry usage will be decided dynamically.
 Keep R1 ints in memory in symmetry-blocked form, NReq=79321962.
 IVT=       66538 IEndB=       66538 NGot=   560463872 MDV=   547119217
 LenX=   547119217 LenY=   547103400
 Requested convergence on RMS density matrix=1.00D-08 within 128 cycles.
 Requested convergence on MAX density matrix=1.00D-06.
 Requested convergence on             energy=1.00D-06.
 No special actions if energy rises.
 FoFCou: FMM=F IPFlag=           0 FMFlag=           0 FMFlg1=           0
         NFxFlg=           0 DoJE=F BraDBF=F KetDBF=F FulRan=T
         wScrn=  0.000000 ICntrl=     600 IOpCl=  0 I1Cent=           0 NGrid=           0
         NMat0=    1 NMatS0=   7260 NMatT0=    0 NMatD0=    1 NMtDS0=    0 NMtDT0=    0
 Petite list used in FoFCou.
 Integral accuracy reduced to 1.0D-05 until final iterations.

 Cycle   1  Pass 0  IDiag  1:
 E= -164.021123014051    
 DIIS: error= 1.03D-01 at cycle   1 NSaved=   1.
 NSaved= 1 IEnMin= 1 EnMin= -164.021123014051     IErMin= 1 ErrMin= 1.03D-01
 ErrMax= 1.03D-01  0.00D+00 EMaxC= 1.00D-01 BMatC= 3.51D-01 BMatP= 3.51D-01
 IDIUse=3 WtCom= 0.00D+00 WtEn= 1.00D+00
 Coeff-Com:  0.100D+01
 Coeff-En:   0.100D+01
 Coeff:      0.100D+01
 Gap=     0.457 Goal=   None    Shift=    0.000
 GapD=    0.457 DampG=2.000 DampE=0.250 DampFc=0.5000 IDamp=-1.
 Damping current iteration by 5.00D-01
 RMSDP=1.91D-03 MaxDP=2.47D-02              OVMax= 8.13D-02

 Cycle   2  Pass 0  IDiag  1:
 E= -164.046896923054     Delta-E=       -0.025773909003 Rises=F Damp=T
 DIIS: error= 4.78D-02 at cycle   2 NSaved=   2.
 NSaved= 2 IEnMin= 2 EnMin= -164.046896923054     IErMin= 2 ErrMin= 4.78D-02
 ErrMax= 4.78D-02  0.00D+00 EMaxC= 1.00D-01 BMatC= 7.82D-02 BMatP= 3.51D-01
 IDIUse=3 WtCom= 5.22D-01 WtEn= 4.78D-01
 Coeff-Com: -0.845D+00 0.185D+01
 Coeff-En:   0.000D+00 0.100D+01
 Coeff:     -0.441D+00 0.144D+01
 Gap=     0.429 Goal=   None    Shift=    0.000
 RMSDP=7.83D-04 MaxDP=1.26D-02 DE=-2.58D-02 OVMax= 2.24D-02

 Cycle   3  Pass 0  IDiag  1:
 E= -164.071103378567     Delta-E=       -0.024206455513 Rises=F Damp=F
 DIIS: error= 3.81D-03 at cycle   3 NSaved=   3.
 NSaved= 3 IEnMin= 3 EnMin= -164.071103378567     IErMin= 3 ErrMin= 3.81D-03
 ErrMax= 3.81D-03  0.00D+00 EMaxC= 1.00D-01 BMatC= 1.13D-03 BMatP= 7.82D-02
 IDIUse=3 WtCom= 9.62D-01 WtEn= 3.81D-02
 Coeff-Com: -0.253D+00 0.542D+00 0.711D+00
 Coeff-En:   0.000D+00 0.000D+00 0.100D+01
 Coeff:     -0.244D+00 0.522D+00 0.722D+00
 Gap=     0.430 Goal=   None    Shift=    0.000
 RMSDP=1.99D-04 MaxDP=5.82D-03 DE=-2.42D-02 OVMax= 1.06D-02

 Cycle   4  Pass 0  IDiag  1:
 E= -164.071988262423     Delta-E=       -0.000884883856 Rises=F Damp=F
 DIIS: error= 9.27D-04 at cycle   4 NSaved=   4.
 NSaved= 4 IEnMin= 4 EnMin= -164.071988262423     IErMin= 4 ErrMin= 9.27D-04
 ErrMax= 9.27D-04  0.00D+00 EMaxC= 1.00D-01 BMatC= 6.74D-05 BMatP= 1.13D-03
 IDIUse=3 WtCom= 9.91D-01 WtEn= 9.27D-03
 Coeff-Com: -0.447D-01 0.979D-01 0.236D+00 0.711D+00
 Coeff-En:   0.000D+00 0.000D+00 0.000D+00 0.100D+01
 Coeff:     -0.443D-01 0.970D-01 0.234D+00 0.713D+00
 Gap=     0.429 Goal=   None    Shift=    0.000
 RMSDP=5.25D-05 MaxDP=1.33D-03 DE=-8.85D-04 OVMax= 2.20D-03

 Cycle   5  Pass 0  IDiag  1:
 E= -164.072053258557     Delta-E=       -0.000064996134 Rises=F Damp=F
 DIIS: error= 2.53D-04 at cycle   5 NSaved=   5.
 NSaved= 5 IEnMin= 5 EnMin= -164.072053258557     IErMin= 5 ErrMin= 2.53D-04
 ErrMax= 2.53D-04  0.00D+00 EMaxC= 1.00D-01 BMatC= 3.68D-06 BMatP= 6.74D-05
 IDIUse=3 WtCom= 9.97D-01 WtEn= 2.53D-03
 Coeff-Com:  0.298D-01-0.639D-01-0.530D-01 0.932D-01 0.994D+00
 Coeff-En:   0.000D+00 0.000D+00 0.000D+00 0.000D+00 0.100D+01
 Coeff:      0.298D-01-0.638D-01-0.528D-01 0.930D-01 0.994D+00
 Gap=     0.429 Goal=   None    Shift=    0.000
 RMSDP=2.96D-05 MaxDP=5.27D-04 DE=-6.50D-05 OVMax= 1.85D-03

 Cycle   6  Pass 0  IDiag  1:
 E= -164.072062083930     Delta-E=       -0.000008825373 Rises=F Damp=F
 DIIS: error= 7.95D-05 at cycle   6 NSaved=   6.
 NSaved= 6 IEnMin= 6 EnMin= -164.072062083930     IErMin= 6 ErrMin= 7.95D-05
 ErrMax= 7.95D-05  0.00D+00 EMaxC= 1.00D-01 BMatC= 1.57D-07 BMatP= 3.68D-06
 IDIUse=1 WtCom= 1.00D+00 WtEn= 0.00D+00
 Coeff-Com: -0.696D-03 0.152D-02-0.184D-02-0.491D-01-0.141D+00 0.119D+01
 Coeff:     -0.696D-03 0.152D-02-0.184D-02-0.491D-01-0.141D+00 0.119D+01
 Gap=     0.429 Goal=   None    Shift=    0.000
 RMSDP=9.55D-06 MaxDP=1.19D-04 DE=-8.83D-06 OVMax= 7.90D-04

 Initial convergence to 1.0D-05 achieved.  Increase integral accuracy.
 Cycle   7  Pass 1  IDiag  1:
 E= -164.072074804429     Delta-E=       -0.000012720500 Rises=F Damp=F
 DIIS: error= 3.60D-05 at cycle   1 NSaved=   1.
 NSaved= 1 IEnMin= 1 EnMin= -164.072074804429     IErMin= 1 ErrMin= 3.60D-05
 ErrMax= 3.60D-05  0.00D+00 EMaxC= 1.00D-01 BMatC= 2.37D-07 BMatP= 2.37D-07
 IDIUse=1 WtCom= 1.00D+00 WtEn= 0.00D+00
 Coeff-Com:  0.100D+01
 Coeff:      0.100D+01
 Gap=     0.429 Goal=   None    Shift=    0.000
 RMSDP=9.55D-06 MaxDP=1.19D-04 DE=-1.27D-05 OVMax= 2.08D-04

 Cycle   8  Pass 1  IDiag  1:
 E= -164.072075080575     Delta-E=       -0.000000276145 Rises=F Damp=F
 DIIS: error= 1.52D-05 at cycle   2 NSaved=   2.
 NSaved= 2 IEnMin= 2 EnMin= -164.072075080575     IErMin= 2 ErrMin= 1.52D-05
 ErrMax= 1.52D-05  0.00D+00 EMaxC= 1.00D-01 BMatC= 1.28D-08 BMatP= 2.37D-07
 IDIUse=1 WtCom= 1.00D+00 WtEn= 0.00D+00
 Coeff-Com: -0.257D-01 0.103D+01
 Coeff:     -0.257D-01 0.103D+01
 Gap=     0.429 Goal=   None    Shift=    0.000
 RMSDP=1.35D-06 MaxDP=1.61D-05 DE=-2.76D-07 OVMax= 8.84D-05

 Cycle   9  Pass 1  IDiag  1:
 E= -164.072075104979     Delta-E=       -0.000000024404 Rises=F Damp=F
 DIIS: error= 7.15D-06 at cycle   3 NSaved=   3.
 NSaved= 3 IEnMin= 3 EnMin= -164.072075104979     IErMin= 3 ErrMin= 7.15D-06
 ErrMax= 7.15D-06  0.00D+00 EMaxC= 1.00D-01 BMatC= 3.13D-09 BMatP= 1.28D-08
 IDIUse=1 WtCom= 1.00D+00 WtEn= 0.00D+00
 Coeff-Com: -0.510D-01 0.284D+00 0.766D+00
 Coeff:     -0.510D-01 0.284D+00 0.766D+00
 Gap=     0.429 Goal=   None    Shift=    0.000
 RMSDP=5.49D-07 MaxDP=9.12D-06 DE=-2.44D-08 OVMax= 4.25D-05

 Cycle  10  Pass 1  IDiag  1:
 E= -164.072075109881     Delta-E=       -0.000000004902 Rises=F Damp=F
 DIIS: error= 2.89D-06 at cycle   4 NSaved=   4.
 NSaved= 4 IEnMin= 4 EnMin= -164.072075109881     IErMin= 4 ErrMin= 2.89D-06
 ErrMax= 2.89D-06  0.00D+00 EMaxC= 1.00D-01 BMatC= 6.20D-10 BMatP= 3.13D-09
 IDIUse=1 WtCom= 1.00D+00 WtEn= 0.00D+00
 Coeff-Com: -0.116D-01-0.433D-01 0.248D+00 0.807D+00
 Coeff:     -0.116D-01-0.433D-01 0.248D+00 0.807D+00
 Gap=     0.429 Goal=   None    Shift=    0.000
 RMSDP=2.65D-07 MaxDP=4.20D-06 DE=-4.90D-09 OVMax= 2.11D-05

 Cycle  11  Pass 1  IDiag  1:
 E= -164.072075110990     Delta-E=       -0.000000001109 Rises=F Damp=F
 DIIS: error= 1.59D-06 at cycle   5 NSaved=   5.
 NSaved= 5 IEnMin= 5 EnMin= -164.072075110990     IErMin= 5 ErrMin= 1.59D-06
 ErrMax= 1.59D-06  0.00D+00 EMaxC= 1.00D-01 BMatC= 6.19D-11 BMatP= 6.20D-10
 IDIUse=1 WtCom= 1.00D+00 WtEn= 0.00D+00
 Coeff-Com:  0.729D-02-0.713D-01-0.759D-01 0.181D+00 0.959D+00
 Coeff:      0.729D-02-0.713D-01-0.759D-01 0.181D+00 0.959D+00
 Gap=     0.429 Goal=   None    Shift=    0.000
 RMSDP=1.63D-07 MaxDP=2.14D-06 DE=-1.11D-09 OVMax= 1.43D-05

 Cycle  12  Pass 1  IDiag  1:
 E= -164.072075111203     Delta-E=       -0.000000000214 Rises=F Damp=F
 DIIS: error= 3.14D-07 at cycle   6 NSaved=   6.
 NSaved= 6 IEnMin= 6 EnMin= -164.072075111203     IErMin= 6 ErrMin= 3.14D-07
 ErrMax= 3.14D-07  0.00D+00 EMaxC= 1.00D-01 BMatC= 4.15D-12 BMatP= 6.19D-11
 IDIUse=1 WtCom= 1.00D+00 WtEn= 0.00D+00
 Coeff-Com:  0.229D-02-0.107D-01-0.302D-01-0.314D-01 0.174D+00 0.896D+00
 Coeff:      0.229D-02-0.107D-01-0.302D-01-0.314D-01 0.174D+00 0.896D+00
 Gap=     0.429 Goal=   None    Shift=    0.000
 RMSDP=3.61D-08 MaxDP=4.44D-07 DE=-2.14D-10 OVMax= 3.34D-06

 Cycle  13  Pass 1  IDiag  1:
 E= -164.072075111215     Delta-E=       -0.000000000012 Rises=F Damp=F
 DIIS: error= 8.49D-08 at cycle   7 NSaved=   7.
 NSaved= 7 IEnMin= 7 EnMin= -164.072075111215     IErMin= 7 ErrMin= 8.49D-08
 ErrMax= 8.49D-08  0.00D+00 EMaxC= 1.00D-01 BMatC= 3.24D-13 BMatP= 4.15D-12
 IDIUse=1 WtCom= 1.00D+00 WtEn= 0.00D+00
 Coeff-Com: -0.432D-03 0.581D-02 0.434D-02-0.217D-01-0.778D-01 0.107D+00
 Coeff-Com:  0.982D+00
 Coeff:     -0.432D-03 0.581D-02 0.434D-02-0.217D-01-0.778D-01 0.107D+00
 Coeff:      0.982D+00
 Gap=     0.429 Goal=   None    Shift=    0.000
 RMSDP=1.07D-08 MaxDP=1.43D-07 DE=-1.23D-11 OVMax= 9.85D-07

 Cycle  14  Pass 1  IDiag  1:
 E= -164.072075111217     Delta-E=       -0.000000000002 Rises=F Damp=F
 DIIS: error= 2.03D-08 at cycle   8 NSaved=   8.
 NSaved= 8 IEnMin= 8 EnMin= -164.072075111217     IErMin= 8 ErrMin= 2.03D-08
 ErrMax= 2.03D-08  0.00D+00 EMaxC= 1.00D-01 BMatC= 3.79D-14 BMatP= 3.24D-13
 IDIUse=1 WtCom= 1.00D+00 WtEn= 0.00D+00
 Coeff-Com: -0.233D-03 0.218D-02 0.277D-02-0.466D-02-0.310D-01-0.149D-01
 Coeff-Com:  0.257D+00 0.789D+00
 Coeff:     -0.233D-03 0.218D-02 0.277D-02-0.466D-02-0.310D-01-0.149D-01
 Coeff:      0.257D+00 0.789D+00
 Gap=     0.429 Goal=   None    Shift=    0.000
 RMSDP=2.18D-09 MaxDP=4.22D-08 DE=-1.53D-12 OVMax= 1.75D-07

 SCF Done:  E(RwB97XD) =  -164.072075111     A.U. after   14 cycles
            NFock= 14  Conv=0.22D-08     -V/T= 2.0056
 KE= 1.631531803231D+02 PE=-6.137239297716D+02 EE= 1.701624003487D+02
 Leave Link  502 at Thu Mar  9 09:05:35 2017, MaxMem=   560463872 cpu:        26.3
 (Enter /share/apps/g09RelE.01/g09/l601.exe)
 Copying SCF densities to generalized density rwf, IOpCl= 0 IROHF=0.

 **********************************************************************

            Population analysis using the SCF density.

 **********************************************************************

 Orbital symmetries:
       Occupied  (A') (A') (A') (A') (A') (A') (A') (A") (A') (A")
                 (A') (A') (A') (A") (A") (A')
       Virtual   (A') (A') (A") (A') (A") (A') (A') (A') (A") (A')
                 (A") (A') (A") (A') (A') (A") (A') (A') (A') (A")
                 (A") (A') (A') (A') (A") (A') (A') (A") (A') (A")
                 (A') (A") (A') (A') (A') (A") (A") (A') (A') (A')
                 (A") (A") (A') (A') (A") (A") (A') (A') (A") (A')
                 (A') (A") (A") (A") (A') (A') (A') (A") (A") (A')
                 (A') (A') (A") (A") (A") (A') (A') (A') (A') (A")
                 (A') (A') (A') (A') (A") (A') (A") (A") (A") (A')
                 (A') (A") (A") (A') (A') (A') (A") (A') (A') (A')
                 (A") (A') (A") (A") (A') (A') (A') (A') (A") (A")
                 (A') (A') (A') (A')
 The electronic state is 1-A'.
 Alpha  occ. eigenvalues --  -14.43089 -14.43062  -6.84651  -6.84628  -0.98175
 Alpha  occ. eigenvalues --   -0.95329  -0.62950  -0.60213  -0.59298  -0.58067
 Alpha  occ. eigenvalues --   -0.47537  -0.46891  -0.43700  -0.39966  -0.39090
 Alpha  occ. eigenvalues --   -0.33608
 Alpha virt. eigenvalues --    0.09307   0.10812   0.14971   0.15216   0.19164
 Alpha virt. eigenvalues --    0.19240   0.20615   0.20823   0.23696   0.24715
 Alpha virt. eigenvalues --    0.26281   0.26441   0.33267   0.36093   0.39221
 Alpha virt. eigenvalues --    0.43588   0.44725   0.47018   0.47967   0.50240
 Alpha virt. eigenvalues --    0.52260   0.53541   0.55038   0.57163   0.61819
 Alpha virt. eigenvalues --    0.63217   0.64664   0.68846   0.76252   0.77469
 Alpha virt. eigenvalues --    0.78458   0.79810   0.80998   0.89905   0.91573
 Alpha virt. eigenvalues --    1.04507   1.08415   1.13719   1.14548   1.18587
 Alpha virt. eigenvalues --    1.19872   1.26360   1.26611   1.29008   1.32943
 Alpha virt. eigenvalues --    1.37567   1.37827   1.43094   1.63849   1.64660
 Alpha virt. eigenvalues --    1.69845   1.71941   1.73205   1.77248   1.77417
 Alpha virt. eigenvalues --    1.84369   1.85178   1.86303   1.86486   1.92718
 Alpha virt. eigenvalues --    1.95279   2.01001   2.01334   2.02143   2.08486
 Alpha virt. eigenvalues --    2.10321   2.16033   2.19115   2.22306   2.22419
 Alpha virt. eigenvalues --    2.29340   2.40551   2.48370   2.49305   2.56035
 Alpha virt. eigenvalues --    2.56880   2.57160   2.65903   2.66069   2.69564
 Alpha virt. eigenvalues --    2.75481   2.77760   2.79327   2.80655   2.85249
 Alpha virt. eigenvalues --    2.88492   2.94922   2.95135   2.98114   3.02970
 Alpha virt. eigenvalues --    3.03166   3.16746   3.19950   3.32146   4.06193
 Alpha virt. eigenvalues --    4.13309   4.63207   4.64749   4.83825   4.84209
 Alpha virt. eigenvalues --   14.64375  14.80542  35.68360  35.73479
          Condensed to atoms (all electrons):
               1          2          3          4          5          6
     1  B    3.600378   0.169627   0.330002  -0.042975  -0.030043  -0.030043
     2  N    0.169627   6.429658  -0.074427   0.330131   0.003684   0.003684
     3  N    0.330002  -0.074427   6.430489   0.169656   0.368901   0.368901
     4  B   -0.042975   0.330131   0.169656   3.600328  -0.007785  -0.007785
     5  H   -0.030043   0.003684   0.368901  -0.007785   0.464013  -0.029926
     6  H   -0.030043   0.003684   0.368901  -0.007785  -0.029926   0.464013
     7  H    0.000802  -0.022117  -0.020097   0.431062  -0.002831   0.001927
     8  H    0.000802  -0.022117  -0.020097   0.431062   0.001927  -0.002831
     9  H   -0.007747   0.368874   0.003679  -0.030055  -0.000303  -0.000082
    10  H   -0.007747   0.368874   0.003679  -0.030055  -0.000082  -0.000303
    11  H    0.430959  -0.020022  -0.022202   0.000820   0.004998  -0.010136
    12  H    0.430959  -0.020022  -0.022202   0.000820  -0.010136   0.004998
               7          8          9         10         11         12
     1  B    0.000802   0.000802  -0.007747  -0.007747   0.430959   0.430959
     2  N   -0.022117  -0.022117   0.368874   0.368874  -0.020022  -0.020022
     3  N   -0.020097  -0.020097   0.003679   0.003679  -0.022202  -0.022202
     4  B    0.431062   0.431062  -0.030055  -0.030055   0.000820   0.000820
     5  H   -0.002831   0.001927  -0.000303  -0.000082   0.004998  -0.010136
     6  H    0.001927  -0.002831  -0.000082  -0.000303  -0.010136   0.004998
     7  H    0.691983  -0.018872   0.004998  -0.010147  -0.000855   0.001211
     8  H   -0.018872   0.691983  -0.010147   0.004998   0.001211  -0.000855
     9  H    0.004998  -0.010147   0.464072  -0.029983  -0.002820   0.001918
    10  H   -0.010147   0.004998  -0.029983   0.464072   0.001918  -0.002820
    11  H   -0.000855   0.001211  -0.002820   0.001918   0.691841  -0.018748
    12  H    0.001211  -0.000855   0.001918  -0.002820  -0.018748   0.691841
 Mulliken charges:
               1
     1  B    0.155027
     2  N   -0.515828
     3  N   -0.516283
     4  B    0.154777
     5  H    0.237584
     6  H    0.237584
     7  H   -0.057063
     8  H   -0.057063
     9  H    0.237596
    10  H    0.237596
    11  H   -0.056964
    12  H   -0.056964
 Sum of Mulliken charges =  -0.00000
 Mulliken charges with hydrogens summed into heavy atoms:
               1
     1  B    0.041100
     2  N   -0.040636
     3  N   -0.041115
     4  B    0.040651
 Electronic spatial extent (au):  <R**2>=            316.3946
 Charge=             -0.0000 electrons
 Dipole moment (field-independent basis, Debye):
    X=              0.0070    Y=              0.0015    Z=             -0.0000  Tot=              0.0072
 Quadrupole moment (field-independent basis, Debye-Ang):
   XX=            -19.9956   YY=            -34.4472   ZZ=            -26.9848
   XY=              2.9633   XZ=             -0.0000   YZ=              0.0000
 Traceless Quadrupole moment (field-independent basis, Debye-Ang):
   XX=              7.1469   YY=             -7.3047   ZZ=              0.1577
   XY=              2.9633   XZ=             -0.0000   YZ=              0.0000
 Octapole moment (field-independent basis, Debye-Ang**2):
  XXX=              0.0294  YYY=              0.0138  ZZZ=              0.0000  XYY=              0.0074
  XXY=              0.0165  XXZ=              0.0000  XZZ=             -0.0019  YZZ=              0.0001
  YYZ=             -0.0000  XYZ=             -0.0000
 Hexadecapole moment (field-independent basis, Debye-Ang**3):
 XXXX=           -139.0908 YYYY=           -243.5735 ZZZZ=            -66.8597 XXXY=             -4.6731
 XXXZ=             -0.0000 YYYX=             -7.7776 YYYZ=              0.0000 ZZZX=              0.0000
 ZZZY=              0.0000 XXYY=            -67.8232 XXZZ=            -27.5673 YYZZ=            -54.3486
 XXYZ=             -0.0000 YYXZ=             -0.0000 ZZXY=             -0.6212
 N-N= 1.163362739886D+02 E-N=-6.137239300907D+02  KE= 1.631531803231D+02
 Symmetry A'   KE= 1.547660523930D+02
 Symmetry A"   KE= 8.387127930184D+00
 No NMR shielding tensors so no spin-rotation constants.
 Leave Link  601 at Thu Mar  9 09:05:35 2017, MaxMem=   560463872 cpu:         0.4
 (Enter /share/apps/g09RelE.01/g09/l701.exe)
 Compute integral first derivatives.
 ... and contract with generalized density number  0.
 R6Disp: Adding Grimme-D2 dispersion energy 1st derivatives to the gradient.
 Leave Link  701 at Thu Mar  9 09:05:35 2017, MaxMem=   560463872 cpu:         0.4
 (Enter /share/apps/g09RelE.01/g09/l702.exe)
 L702 exits ... SP integral derivatives will be done elsewhere.
 Leave Link  702 at Thu Mar  9 09:05:35 2017, MaxMem=   560463872 cpu:         0.1
 (Enter /share/apps/g09RelE.01/g09/l703.exe)
 Compute integral first derivatives, UseDBF=F ICtDFT=           0.
 Integral derivatives from FoFJK, PRISM(SPDF).
 Calling FoFJK, ICntrl=      2127 FMM=F ISym2X=1 I1Cent= 0 IOpClX= 0 NMat=1 NMatS=1 NMatT=0.
 FoFJK:  IHMeth= 1 ICntrl=    2127 DoSepK=T KAlg= 0 I1Cent=   0 FoldK=F
 IRaf=         1 NMat=   1 IRICut=       1 DoRegI=T DoRafI=F ISym2E= 1.
 FoFCou: FMM=F IPFlag=           0 FMFlag=      100000 FMFlg1=         800
         NFxFlg=           0 DoJE=F BraDBF=F KetDBF=F FulRan=T
         wScrn=  0.000000 ICntrl=    2527 IOpCl=  0 I1Cent=           0 NGrid=           0
         NMat0=    1 NMatS0=      1 NMatT0=    0 NMatD0=    1 NMtDS0=    0 NMtDT0=    0
 Petite list used in FoFCou.
 Leave Link  703 at Thu Mar  9 09:05:37 2017, MaxMem=   560463872 cpu:         7.4
 (Enter /share/apps/g09RelE.01/g09/l716.exe)
 Dipole        = 2.76267346D-03 5.89041894D-04-4.44089210D-16
 ***** Axes restored to original set *****
 -------------------------------------------------------------------
 Center     Atomic                   Forces (Hartrees/Bohr)
 Number     Number              X              Y              Z
 -------------------------------------------------------------------
      1        5           0.013272596    0.018310053    0.000000000
      2        7          -0.012725393   -0.016552047    0.000000000
      3        7           0.013290826    0.016303294   -0.000000000
      4        5          -0.014053909   -0.018180644    0.000000000
      5        1           0.000022694    0.000241452   -0.000061916
      6        1           0.000022694    0.000241452    0.000061916
      7        1           0.000125156    0.000096650    0.000158429
      8        1           0.000125156    0.000096650   -0.000158429
      9        1          -0.000117747   -0.000260164    0.000036092
     10        1          -0.000117747   -0.000260164   -0.000036092
     11        1           0.000077836   -0.000018266    0.000044876
     12        1           0.000077836   -0.000018266   -0.000044876
 -------------------------------------------------------------------
 Cartesian Forces:  Max     0.018310053 RMS     0.007299592
 Leave Link  716 at Thu Mar  9 09:05:37 2017, MaxMem=   560463872 cpu:         0.1
 (Enter /share/apps/g09RelE.01/g09/l103.exe)

 GradGradGradGradGradGradGradGradGradGradGradGradGradGradGradGradGradGrad
 Berny optimization.
 FormGI is forming the generalized inverse of G from B-inverse, IUseBI=4.
 Internal  Forces:  Max     0.022101295 RMS     0.003678864
 Search for a local minimum.
 Step number   1 out of a maximum of   82 on scan point     1 out of     2
 All quantities printed in internal units (Hartrees-Bohrs-Radians)
 RMS Force = .16326D-03 SwitMx=.10000D-02 MixMth= 2
 Mixed Optimization -- En-DIIS/RFO-DIIS
 Second derivative matrix not updated -- first step.
 ITU=  0
     Eigenvalues ---    0.00395   0.02504   0.02702   0.03353   0.04333
     Eigenvalues ---    0.04594   0.04609   0.04619   0.06344   0.06432
     Eigenvalues ---    0.06569   0.06816   0.07298   0.07350   0.07672
     Eigenvalues ---    0.08106   0.08849   0.21609   0.24787   0.24787
     Eigenvalues ---    0.24812   0.24812   0.29340   0.30977   0.46087
     Eigenvalues ---    0.46087   0.46101   0.461011000.000001000.00000
     Eigenvalues --- 1000.000001000.000001000.000001000.000001000.00000
     Eigenvalues --- 1000.000001000.000001000.000001000.000001000.00000
     Eigenvalues --- 1000.000001000.000001000.000001000.000001000.00000
     Eigenvalues --- 1000.000001000.000001000.000001000.000001000.00000
     Eigenvalues --- 1000.000001000.000001000.000001000.000001000.00000
     Eigenvalues --- 1000.000001000.000001000.000001000.000001000.00000
     Eigenvalues --- 1000.000001000.000001000.000001000.000001000.00000
     Eigenvalues --- 1000.000001000.000001000.000001000.000001000.00000
     Eigenvalues --- 1000.000001000.00000
 RFO step:  Lambda=-1.54833435D-05 EMin= 3.94728885D-03
 Linear search not attempted -- first point.
 Iteration  1 RMS(Cart)=  0.00130415 RMS(Int)=  0.00000374
 Iteration  2 RMS(Cart)=  0.00000270 RMS(Int)=  0.00000278
 Iteration  3 RMS(Cart)=  0.00000000 RMS(Int)=  0.00000278
 Iteration  1 RMS(Cart)=  0.00000019 RMS(Int)=  0.00000008
 ITry= 1 IFail=0 DXMaxC= 3.51D-03 DCOld= 1.00D+10 DXMaxT= 3.00D-01 DXLimC= 3.00D+00 Rises=F
 ClnCor:  largest displacement from symmetrization is 1.20D-12 for atom     8.
 Variable       Old X    -DE/DX   Delta X   Delta X   Delta X     New X
                                 (Linear)    (Quad)   (Total)
    R1        3.78503  -0.02210   0.00000   0.00000   0.00000   3.78503
    R2        2.86154  -0.00032   0.00000  -0.00107  -0.00107   2.86048
    R3        2.26453  -0.00001   0.00000  -0.00005  -0.00005   2.26448
    R4        2.26453  -0.00001   0.00000  -0.00005  -0.00005   2.26448
    R5        2.85962   0.00002   0.00000   0.00007   0.00007   2.85969
    R6        1.90734  -0.00010   0.00000  -0.00022  -0.00022   1.90711
    R7        1.90734  -0.00010   0.00000  -0.00022  -0.00022   1.90711
    R8        3.78503  -0.02200   0.00000   0.00000  -0.00000   3.78503
    R9        1.90718  -0.00007   0.00000  -0.00015  -0.00015   1.90703
   R10        1.90718  -0.00007   0.00000  -0.00015  -0.00015   1.90703
   R11        2.26389   0.00015   0.00000   0.00061   0.00061   2.26450
   R12        2.26389   0.00015   0.00000   0.00061   0.00061   2.26450
    A1        1.62521   0.00055   0.00000   0.00302   0.00302   1.62822
    A2        1.78937  -0.00021   0.00000  -0.00092  -0.00092   1.78845
    A3        1.78937  -0.00021   0.00000  -0.00092  -0.00092   1.78845
    A4        2.03000  -0.00004   0.00000   0.00025   0.00025   2.03025
    A5        2.03000  -0.00004   0.00000   0.00025   0.00025   2.03025
    A6        2.08362   0.00002   0.00000  -0.00101  -0.00101   2.08261
    A7        1.51635  -0.00051   0.00000  -0.00300  -0.00300   1.51335
    A8        1.95184   0.00006   0.00000  -0.00165  -0.00165   1.95019
    A9        1.95184   0.00006   0.00000  -0.00165  -0.00165   1.95019
   A10        2.04168   0.00019   0.00000   0.00187   0.00186   2.04354
   A11        2.04168   0.00019   0.00000   0.00187   0.00186   2.04354
   A12        1.92468  -0.00007   0.00000   0.00112   0.00111   1.92580
   A13        1.51588  -0.00046   0.00000  -0.00272  -0.00271   1.51316
   A14        2.04148   0.00019   0.00000   0.00201   0.00200   2.04348
   A15        2.04148   0.00019   0.00000   0.00201   0.00200   2.04348
   A16        1.95138   0.00007   0.00000  -0.00138  -0.00138   1.95000
   A17        1.95138   0.00007   0.00000  -0.00138  -0.00138   1.95000
   A18        1.92596  -0.00011   0.00000   0.00033   0.00033   1.92629
   A19        1.62575   0.00042   0.00000   0.00270   0.00269   1.62845
   A20        2.03222  -0.00013   0.00000  -0.00144  -0.00145   2.03077
   A21        2.03222  -0.00013   0.00000  -0.00144  -0.00145   2.03077
   A22        1.78733  -0.00008   0.00000   0.00114   0.00114   1.78847
   A23        1.78733  -0.00008   0.00000   0.00114   0.00114   1.78847
   A24        2.08137   0.00011   0.00000   0.00013   0.00012   2.08150
    D1        0.00000   0.00000   0.00000   0.00000   0.00000   0.00000
    D2       -2.05739   0.00001   0.00000  -0.00051  -0.00051  -2.05790
    D3        2.05739  -0.00001   0.00000   0.00051   0.00051   2.05790
    D4        2.05647   0.00008   0.00000   0.00094   0.00094   2.05742
    D5       -0.00092   0.00008   0.00000   0.00043   0.00043  -0.00049
    D6       -2.16932   0.00007   0.00000   0.00145   0.00145  -2.16787
    D7       -2.05647  -0.00008   0.00000  -0.00094  -0.00094  -2.05742
    D8        2.16932  -0.00007   0.00000  -0.00145  -0.00145   2.16787
    D9        0.00092  -0.00008   0.00000  -0.00043  -0.00043   0.00049
   D10        0.00000  -0.00000   0.00000  -0.00000   0.00000   0.00000
   D11       -1.97082   0.00014   0.00000   0.00269   0.00269  -1.96812
   D12        1.97082  -0.00014   0.00000  -0.00269  -0.00269   1.96812
   D13       -1.84335  -0.00004   0.00000  -0.00060  -0.00060  -1.84395
   D14        2.46902   0.00010   0.00000   0.00209   0.00209   2.47111
   D15        0.12747  -0.00018   0.00000  -0.00329  -0.00330   0.12417
   D16        1.84335   0.00004   0.00000   0.00060   0.00060   1.84395
   D17       -0.12747   0.00018   0.00000   0.00329   0.00330  -0.12417
   D18       -2.46902  -0.00010   0.00000  -0.00209  -0.00209  -2.47111
   D19        0.00000  -0.00000   0.00000  -0.00000   0.00000   0.00000
   D20        1.84175   0.00011   0.00000   0.00244   0.00244   1.84420
   D21       -1.84175  -0.00011   0.00000  -0.00244  -0.00244  -1.84420
   D22        1.97163  -0.00017   0.00000  -0.00317  -0.00317   1.96846
   D23       -2.46980  -0.00006   0.00000  -0.00072  -0.00073  -2.47053
   D24        0.12987  -0.00028   0.00000  -0.00561  -0.00561   0.12426
   D25       -1.97163   0.00017   0.00000   0.00317   0.00317  -1.96846
   D26       -0.12987   0.00028   0.00000   0.00561   0.00561  -0.12426
   D27        2.46980   0.00006   0.00000   0.00072   0.00073   2.47053
   D28        0.00000   0.00000   0.00000   0.00000   0.00000   0.00000
   D29       -2.05857   0.00003   0.00000   0.00054   0.00054  -2.05802
   D30        2.05857  -0.00003   0.00000  -0.00054  -0.00054   2.05802
   D31        2.05690   0.00002   0.00000   0.00083   0.00083   2.05772
   D32       -0.00167   0.00005   0.00000   0.00137   0.00137  -0.00030
   D33       -2.16772  -0.00001   0.00000   0.00028   0.00028  -2.16744
   D34       -2.05690  -0.00002   0.00000  -0.00083  -0.00083  -2.05772
   D35        2.16772   0.00001   0.00000  -0.00028  -0.00028   2.16744
   D36        0.00167  -0.00005   0.00000  -0.00137  -0.00137   0.00030
         Item               Value     Threshold  Converged?
 Maximum Force            0.000533     0.002500     YES
 RMS     Force            0.000163     0.001667     YES
 Maximum Displacement     0.003509     0.010000     YES
 RMS     Displacement     0.001304     0.006667     YES
 Predicted change in Energy=-7.752493D-06
 Optimization completed.
    -- Stationary point found.
                           ----------------------------
                           !   Optimized Parameters   !
                           ! (Angstroms and Degrees)  !
 --------------------------                            --------------------------
 ! Name  Definition              Value          Derivative Info.                !
 --------------------------------------------------------------------------------
 ! R1    R(1,2)                  2.003          -DE/DX =   -0.0221              !
 ! R2    R(1,3)                  1.5143         -DE/DX =   -0.0003              !
 ! R3    R(1,11)                 1.1983         -DE/DX =    0.0                 !
 ! R4    R(1,12)                 1.1983         -DE/DX =    0.0                 !
 ! R5    R(2,4)                  1.5132         -DE/DX =    0.0                 !
 ! R6    R(2,9)                  1.0093         -DE/DX =   -0.0001              !
 ! R7    R(2,10)                 1.0093         -DE/DX =   -0.0001              !
 ! R8    R(3,4)                  2.003          -DE/DX =   -0.022               !
 ! R9    R(3,5)                  1.0092         -DE/DX =   -0.0001              !
 ! R10   R(3,6)                  1.0092         -DE/DX =   -0.0001              !
 ! R11   R(4,7)                  1.198          -DE/DX =    0.0002              !
 ! R12   R(4,8)                  1.198          -DE/DX =    0.0002              !
 ! A1    A(2,1,3)               93.1175         -DE/DX =    0.0005              !
 ! A2    A(2,1,11)             102.5235         -DE/DX =   -0.0002              !
 ! A3    A(2,1,12)             102.5235         -DE/DX =   -0.0002              !
 ! A4    A(3,1,11)             116.3103         -DE/DX =    0.0                 !
 ! A5    A(3,1,12)             116.3103         -DE/DX =    0.0                 !
 ! A6    A(11,1,12)            119.3824         -DE/DX =    0.0                 !
 ! A7    A(1,2,4)               86.8804         -DE/DX =   -0.0005              !
 ! A8    A(1,2,9)              111.8323         -DE/DX =    0.0001              !
 ! A9    A(1,2,10)             111.8323         -DE/DX =    0.0001              !
 ! A10   A(4,2,9)              116.9797         -DE/DX =    0.0002              !
 ! A11   A(4,2,10)             116.9797         -DE/DX =    0.0002              !
 ! A12   A(9,2,10)             110.2761         -DE/DX =   -0.0001              !
 ! A13   A(1,3,4)               86.8533         -DE/DX =   -0.0005              !
 ! A14   A(1,3,5)              116.9679         -DE/DX =    0.0002              !
 ! A15   A(1,3,6)              116.9679         -DE/DX =    0.0002              !
 ! A16   A(4,3,5)              111.8057         -DE/DX =    0.0001              !
 ! A17   A(4,3,6)              111.8057         -DE/DX =    0.0001              !
 ! A18   A(5,3,6)              110.3496         -DE/DX =   -0.0001              !
 ! A19   A(2,4,3)               93.1487         -DE/DX =    0.0004              !
 ! A20   A(2,4,7)              116.4374         -DE/DX =   -0.0001              !
 ! A21   A(2,4,8)              116.4374         -DE/DX =   -0.0001              !
 ! A22   A(3,4,7)              102.4066         -DE/DX =   -0.0001              !
 ! A23   A(3,4,8)              102.4066         -DE/DX =   -0.0001              !
 ! A24   A(7,4,8)              119.2539         -DE/DX =    0.0001              !
 ! D1    D(3,1,2,4)              0.0            -DE/DX =    0.0                 !
 ! D2    D(3,1,2,9)           -117.8798         -DE/DX =    0.0                 !
 ! D3    D(3,1,2,10)           117.8798         -DE/DX =    0.0                 !
 ! D4    D(11,1,2,4)           117.8272         -DE/DX =    0.0001              !
 ! D5    D(11,1,2,9)            -0.0526         -DE/DX =    0.0001              !
 ! D6    D(11,1,2,10)         -124.2929         -DE/DX =    0.0001              !
 ! D7    D(12,1,2,4)          -117.8272         -DE/DX =   -0.0001              !
 ! D8    D(12,1,2,9)           124.2929         -DE/DX =   -0.0001              !
 ! D9    D(12,1,2,10)            0.0526         -DE/DX =   -0.0001              !
 ! D10   D(2,1,3,4)              0.0            -DE/DX =    0.0                 !
 ! D11   D(2,1,3,5)           -112.9195         -DE/DX =    0.0001              !
 ! D12   D(2,1,3,6)            112.9195         -DE/DX =   -0.0001              !
 ! D13   D(11,1,3,4)          -105.616          -DE/DX =    0.0                 !
 ! D14   D(11,1,3,5)           141.4645         -DE/DX =    0.0001              !
 ! D15   D(11,1,3,6)             7.3035         -DE/DX =   -0.0002              !
 ! D16   D(12,1,3,4)           105.616          -DE/DX =    0.0                 !
 ! D17   D(12,1,3,5)            -7.3035         -DE/DX =    0.0002              !
 ! D18   D(12,1,3,6)          -141.4645         -DE/DX =   -0.0001              !
 ! D19   D(1,2,4,3)              0.0            -DE/DX =    0.0                 !
 ! D20   D(1,2,4,7)            105.5248         -DE/DX =    0.0001              !
 ! D21   D(1,2,4,8)           -105.5248         -DE/DX =   -0.0001              !
 ! D22   D(9,2,4,3)            112.9658         -DE/DX =   -0.0002              !
 ! D23   D(9,2,4,7)           -141.5094         -DE/DX =   -0.0001              !
 ! D24   D(9,2,4,8)              7.4411         -DE/DX =   -0.0003              !
 ! D25   D(10,2,4,3)          -112.9658         -DE/DX =    0.0002              !
 ! D26   D(10,2,4,7)            -7.4411         -DE/DX =    0.0003              !
 ! D27   D(10,2,4,8)           141.5094         -DE/DX =    0.0001              !
 ! D28   D(1,3,4,2)              0.0            -DE/DX =    0.0                 !
 ! D29   D(1,3,4,7)           -117.9471         -DE/DX =    0.0                 !
 ! D30   D(1,3,4,8)            117.9471         -DE/DX =    0.0                 !
 ! D31   D(5,3,4,2)            117.8516         -DE/DX =    0.0                 !
 ! D32   D(5,3,4,7)             -0.0955         -DE/DX =    0.0                 !
 ! D33   D(5,3,4,8)           -124.2013         -DE/DX =    0.0                 !
 ! D34   D(6,3,4,2)           -117.8516         -DE/DX =    0.0                 !
 ! D35   D(6,3,4,7)            124.2013         -DE/DX =    0.0                 !
 ! D36   D(6,3,4,8)              0.0955         -DE/DX =    0.0                 !
 --------------------------------------------------------------------------------
 Lowest energy point so far.  Saving SCF results.
 Iteration  1 RMS(Cart)=  0.02703576 RMS(Int)=  0.00809522
 Iteration  2 RMS(Cart)=  0.00009102 RMS(Int)=  0.00809496
 Iteration  3 RMS(Cart)=  0.00000041 RMS(Int)=  0.00809496
 Iteration  1 RMS(Cart)=  0.00500836 RMS(Int)=  0.00213909
 Iteration  2 RMS(Cart)=  0.00132352 RMS(Int)=  0.00233783
 Iteration  3 RMS(Cart)=  0.00034978 RMS(Int)=  0.00244904
 Iteration  4 RMS(Cart)=  0.00009244 RMS(Int)=  0.00248179
 Iteration  5 RMS(Cart)=  0.00002443 RMS(Int)=  0.00249066
 Iteration  6 RMS(Cart)=  0.00000646 RMS(Int)=  0.00249302
 Iteration  7 RMS(Cart)=  0.00000171 RMS(Int)=  0.00249365
 Iteration  8 RMS(Cart)=  0.00000045 RMS(Int)=  0.00249381
 GradGradGradGradGradGradGradGradGradGradGradGradGradGradGradGradGradGrad

 Leave Link  103 at Thu Mar  9 09:05:37 2017, MaxMem=   560463872 cpu:         0.1
 (Enter /share/apps/g09RelE.01/g09/l202.exe)
                          Input orientation:                          
 ---------------------------------------------------------------------
 Center     Atomic      Atomic             Coordinates (Angstroms)
 Number     Number       Type             X           Y           Z
 ---------------------------------------------------------------------
      1          5           0       -0.026244   -1.261118    0.000000
      2          7           0        1.272433    0.392919   -0.000000
      3          7           0       -1.238002   -0.354523    0.000000
      4          5           0        0.002401    1.218123    0.000000
      5          1           0       -1.811333   -0.365565    0.830404
      6          1           0       -1.811333   -0.365565   -0.830404
      7          1           0       -0.278752    1.752064    1.035299
      8          1           0       -0.278752    1.752064   -1.035299
      9          1           0        1.850622    0.426589   -0.826471
     10          1           0        1.850622    0.426589    0.826471
     11          1           0        0.232783   -1.810887   -1.032771
     12          1           0        0.232783   -1.810887    1.032771
 ---------------------------------------------------------------------
                    Distance matrix (angstroms):
                    1          2          3          4          5
     1  B    0.000000
     2  N    2.102950   0.000000
     3  N    1.513365   2.619342   0.000000
     4  B    2.479407   1.514577   2.002952   0.000000
     5  H    2.162899   3.282451   1.009159   2.547013   0.000000
     6  H    2.162899   3.282451   1.009159   2.547013   1.660808
     7  H    3.196071   2.307660   2.535688   1.198326   2.622049
     8  H    3.196071   2.307660   2.535688   1.198326   3.211543
     9  H    2.655943   1.009203   3.291320   2.173822   4.096665
    10  H    2.655943   1.009203   3.291320   2.173822   3.746657
    11  H    1.198314   2.646554   2.313184   3.208519   3.120703
    12  H    1.198314   2.646554   2.313184   3.208519   2.511636
                    6          7          8          9         10
     6  H    0.000000
     7  H    3.211543   0.000000
     8  H    2.622049   2.070599   0.000000
     9  H    3.746657   3.123669   2.516889   0.000000
    10  H    4.096665   2.516889   3.123669   1.652942   0.000000
    11  H    2.511636   4.151289   3.599485   2.768801   3.328736
    12  H    3.120703   3.599485   4.151289   3.328736   2.768801
                   11         12
    11  H    0.000000
    12  H    2.065542   0.000000
 Stoichiometry    B2H8N2
 Framework group  CS[SG(B2N2),X(H8)]
 Deg. of freedom    17
 Full point group                 CS      NOp   2
 RotChk:  IX=0 Diff= 1.15D-03
 Largest Abelian subgroup         CS      NOp   2
 Largest concise Abelian subgroup CS      NOp   2
                         Standard orientation:                         
 ---------------------------------------------------------------------
 Center     Atomic      Atomic             Coordinates (Angstroms)
 Number     Number       Type             X           Y           Z
 ---------------------------------------------------------------------
      1          5           0       -0.030658   -1.262912    0.000000
      2          7           0        1.269361    0.390069    0.000000
      3          7           0       -1.241680   -0.355333    0.000000
      4          5           0        0.000000    1.216305    0.000000
      5          1           0       -1.815020   -0.365910    0.830404
      6          1           0       -1.815020   -0.365910   -0.830404
      7          1           0       -0.280719    1.750474    1.035299
      8          1           0       -0.280719    1.750474   -1.035299
      9          1           0        1.847578    0.423269   -0.826471
     10          1           0        1.847578    0.423269    0.826471
     11          1           0        0.227922   -1.812891   -1.032771
     12          1           0        0.227922   -1.812891    1.032771
 ---------------------------------------------------------------------
 Rotational constants (GHZ):     10.8397196      6.5928876      4.6312434
 Leave Link  202 at Thu Mar  9 09:05:37 2017, MaxMem=   560463872 cpu:         0.0
 (Enter /share/apps/g09RelE.01/g09/l301.exe)
 Standard basis: 6-311G(d,p) (5D, 7F)
 Ernie: Thresh=  0.10000D-02 Tol=  0.10000D-05 Strict=F.
 There are    80 symmetry adapted cartesian basis functions of A'  symmetry.
 There are    44 symmetry adapted cartesian basis functions of A"  symmetry.
 There are    76 symmetry adapted basis functions of A'  symmetry.
 There are    44 symmetry adapted basis functions of A"  symmetry.
   120 basis functions,   192 primitive gaussians,   124 cartesian basis functions
    16 alpha electrons       16 beta electrons
       nuclear repulsion energy       115.3619682138 Hartrees.
 IExCor= 4639 DFT=T Ex+Corr=wB97XD ExCW=0 ScaHFX=  1.000000
 ScaDFX=  1.000000  1.000000  1.000000  1.000000 ScalE2=  1.000000  1.000000
 IRadAn=      5 IRanWt=     -1 IRanGd=            0 ICorTp=0 IEmpDi=121
  HFx wShort=  0.000000 wLong=  0.200000 cFull=  0.222036 cShort=  0.000000 cLong=  0.777964
  DFx wShort=  0.000000 wLong=  0.200000 cFull=  0.000000 cShort=  0.000000 cLong=  1.000000
 NAtoms=   12 NActive=   12 NUniq=    8 SFac= 2.25D+00 NAtFMM=   60 NAOKFM=F Big=F
 Integral buffers will be    131072 words long.
 Raffenetti 2 integral format.
 Two-electron integral symmetry is turned on.
 R6Disp:  Grimme-D2 Dispersion energy=       -0.0054570856 Hartrees.
 Nuclear repulsion after empirical dispersion term =      115.3565111282 Hartrees.
 Leave Link  301 at Thu Mar  9 09:05:37 2017, MaxMem=   560463872 cpu:         0.2
 (Enter /share/apps/g09RelE.01/g09/l302.exe)
 NPDir=0 NMtPBC=     1 NCelOv=     1 NCel=       1 NClECP=     1 NCelD=      1
         NCelK=      1 NCelE2=     1 NClLst=     1 CellRange=     0.0.
 One-electron integrals computed using PRISM.
 One-electron integral symmetry used in STVInt
 NBasis=   120 RedAO= T EigKep=  5.70D-03  NBF=    76    44
 NBsUse=   120 1.00D-06 EigRej= -1.00D+00 NBFU=    76    44
 Precomputing XC quadrature grid using
 IXCGrd= 4 IRadAn=           5 IRanWt=          -1 IRanGd=           0 AccXCQ= 0.00D+00.
 Generated NRdTot=       0 NPtTot=           0 NUsed=           0 NTot=          32
 NSgBfM=   124   124   124   124   124 MxSgAt=    12 MxSgA2=    12.
 Leave Link  302 at Thu Mar  9 09:05:37 2017, MaxMem=   560463872 cpu:         0.5
 (Enter /share/apps/g09RelE.01/g09/l303.exe)
 DipDrv:  MaxL=1.
 Leave Link  303 at Thu Mar  9 09:05:37 2017, MaxMem=   560463872 cpu:         0.1
 (Enter /share/apps/g09RelE.01/g09/l401.exe)
 Initial guess from the checkpoint file:  "AB-AB-NHscan.chk"
 B after Tr=     0.000000   -0.000000    0.000000
         Rot=    1.000000   -0.000000   -0.000000   -0.000385 Ang=  -0.04 deg.
 Guess basis will be translated and rotated to current coordinates.
 JPrj=2 DoOrth=T DoCkMO=T.
 Initial guess orbital symmetries:
       Occupied  (A') (A') (A') (A') (A') (A') (A') (A") (A') (A")
                 (A') (A') (A') (A") (A") (A')
       Virtual   (A') (A') (A') (A') (A') (A') (A') (A') (A') (A')
                 (A') (A') (A') (A') (A') (A') (A') (A') (A') (A')
                 (A') (A') (A') (A') (A') (A') (A') (A') (A') (A')
                 (A') (A') (A') (A') (A') (A') (A') (A') (A') (A')
                 (A') (A') (A') (A') (A') (A') (A') (A') (A') (A')
                 (A') (A') (A') (A') (A') (A') (A') (A') (A') (A')
                 (A') (A') (A') (A') (A") (A") (A") (A") (A") (A")
                 (A") (A") (A") (A") (A") (A") (A") (A") (A") (A")
                 (A") (A") (A") (A") (A") (A") (A") (A") (A") (A")
                 (A") (A") (A") (A") (A") (A") (A") (A") (A") (A")
                 (A") (A") (A") (A")
 The electronic state of the initial guess is 1-A'.
 Generating alternative initial guess.
 ExpMin= 9.89D-02 ExpMax= 6.29D+03 ExpMxC= 9.49D+02 IAcc=2 IRadAn=         4 AccDes= 0.00D+00
 Harris functional with IExCor= 4639 and IRadAn=       4 diagonalized for initial guess.
 HarFok:  IExCor= 4639 AccDes= 0.00D+00 IRadAn=         4 IDoV= 1 UseB2=F ITyADJ=14
 ICtDFT=  3500011 ScaDFX=  1.000000  1.000000  1.000000  1.000000
 FoFCou: FMM=F IPFlag=           0 FMFlag=      100000 FMFlg1=           0
         NFxFlg=           0 DoJE=T BraDBF=F KetDBF=T FulRan=T
         wScrn=  0.000000 ICntrl=     500 IOpCl=  0 I1Cent=   200000004 NGrid=           0
         NMat0=    1 NMatS0=      1 NMatT0=    0 NMatD0=    1 NMtDS0=    0 NMtDT0=    0
 Petite list used in FoFCou.
 Harris En= -156.196404915807    
 Leave Link  401 at Thu Mar  9 09:05:37 2017, MaxMem=   560463872 cpu:         1.1
 (Enter /share/apps/g09RelE.01/g09/l502.exe)
 Closed shell SCF:
 Using DIIS extrapolation, IDIIS=  1040.
 Integral symmetry usage will be decided dynamically.
 Keep R1 ints in memory in symmetry-blocked form, NReq=79321962.
 IVT=       66538 IEndB=       66538 NGot=   560463872 MDV=   547119217
 LenX=   547119217 LenY=   547103400
 Requested convergence on RMS density matrix=1.00D-08 within 128 cycles.
 Requested convergence on MAX density matrix=1.00D-06.
 Requested convergence on             energy=1.00D-06.
 No special actions if energy rises.
 FoFCou: FMM=F IPFlag=           0 FMFlag=           0 FMFlg1=           0
         NFxFlg=           0 DoJE=F BraDBF=F KetDBF=F FulRan=T
         wScrn=  0.000000 ICntrl=     600 IOpCl=  0 I1Cent=           0 NGrid=           0
         NMat0=    1 NMatS0=   7260 NMatT0=    0 NMatD0=    1 NMtDS0=    0 NMtDT0=    0
 Petite list used in FoFCou.
 Integral accuracy reduced to 1.0D-05 until final iterations.

 Cycle   1  Pass 0  IDiag  1:
 E= -164.066444253490    
 DIIS: error= 2.41D-03 at cycle   1 NSaved=   1.
 NSaved= 1 IEnMin= 1 EnMin= -164.066444253490     IErMin= 1 ErrMin= 2.41D-03
 ErrMax= 2.41D-03  0.00D+00 EMaxC= 1.00D-01 BMatC= 6.33D-04 BMatP= 6.33D-04
 IDIUse=3 WtCom= 9.76D-01 WtEn= 2.41D-02
 Coeff-Com:  0.100D+01
 Coeff-En:   0.100D+01
 Coeff:      0.100D+01
 Gap=     0.783 Goal=   None    Shift=    0.000
 GapD=    0.783 DampG=2.000 DampE=1.000 DampFc=2.0000 IDamp=-1.
 RMSDP=2.52D-04 MaxDP=5.52D-03              OVMax= 1.42D-02

 Cycle   2  Pass 0  IDiag  1:
 E= -164.067647709682     Delta-E=       -0.001203456192 Rises=F Damp=F
 DIIS: error= 7.19D-04 at cycle   2 NSaved=   2.
 NSaved= 2 IEnMin= 2 EnMin= -164.067647709682     IErMin= 2 ErrMin= 7.19D-04
 ErrMax= 7.19D-04  0.00D+00 EMaxC= 1.00D-01 BMatC= 4.70D-05 BMatP= 6.33D-04
 IDIUse=3 WtCom= 9.93D-01 WtEn= 7.19D-03
 Coeff-Com: -0.918D-01 0.109D+01
 Coeff-En:   0.000D+00 0.100D+01
 Coeff:     -0.911D-01 0.109D+01
 Gap=     0.421 Goal=   None    Shift=    0.000
 RMSDP=8.51D-05 MaxDP=1.21D-03 DE=-1.20D-03 OVMax= 6.07D-03

 Cycle   3  Pass 0  IDiag  1:
 E= -164.067749208421     Delta-E=       -0.000101498738 Rises=F Damp=F
 DIIS: error= 4.85D-04 at cycle   3 NSaved=   3.
 NSaved= 3 IEnMin= 3 EnMin= -164.067749208421     IErMin= 3 ErrMin= 4.85D-04
 ErrMax= 4.85D-04  0.00D+00 EMaxC= 1.00D-01 BMatC= 2.44D-05 BMatP= 4.70D-05
 IDIUse=3 WtCom= 9.95D-01 WtEn= 4.85D-03
 Coeff-Com: -0.102D+00 0.470D+00 0.631D+00
 Coeff-En:   0.000D+00 0.000D+00 0.100D+01
 Coeff:     -0.101D+00 0.468D+00 0.633D+00
 Gap=     0.421 Goal=   None    Shift=    0.000
 RMSDP=3.19D-05 MaxDP=9.29D-04 DE=-1.01D-04 OVMax= 2.23D-03

 Cycle   4  Pass 0  IDiag  1:
 E= -164.067773592793     Delta-E=       -0.000024384372 Rises=F Damp=F
 DIIS: error= 1.75D-04 at cycle   4 NSaved=   4.
 NSaved= 4 IEnMin= 4 EnMin= -164.067773592793     IErMin= 4 ErrMin= 1.75D-04
 ErrMax= 1.75D-04  0.00D+00 EMaxC= 1.00D-01 BMatC= 1.78D-06 BMatP= 2.44D-05
 IDIUse=3 WtCom= 9.98D-01 WtEn= 1.75D-03
 Coeff-Com: -0.903D-02-0.465D-01 0.164D+00 0.891D+00
 Coeff-En:   0.000D+00 0.000D+00 0.000D+00 0.100D+01
 Coeff:     -0.901D-02-0.464D-01 0.164D+00 0.891D+00
 Gap=     0.421 Goal=   None    Shift=    0.000
 RMSDP=1.68D-05 MaxDP=2.99D-04 DE=-2.44D-05 OVMax= 1.36D-03

 Cycle   5  Pass 0  IDiag  1:
 E= -164.067777239226     Delta-E=       -0.000003646433 Rises=F Damp=F
 DIIS: error= 7.28D-05 at cycle   5 NSaved=   5.
 NSaved= 5 IEnMin= 5 EnMin= -164.067777239226     IErMin= 5 ErrMin= 7.28D-05
 ErrMax= 7.28D-05  0.00D+00 EMaxC= 1.00D-01 BMatC= 1.46D-07 BMatP= 1.78D-06
 IDIUse=1 WtCom= 1.00D+00 WtEn= 0.00D+00
 Coeff-Com:  0.897D-02-0.597D-01-0.502D-01 0.146D+00 0.955D+00
 Coeff:      0.897D-02-0.597D-01-0.502D-01 0.146D+00 0.955D+00
 Gap=     0.421 Goal=   None    Shift=    0.000
 RMSDP=7.10D-06 MaxDP=1.08D-04 DE=-3.65D-06 OVMax= 6.06D-04

 Initial convergence to 1.0D-05 achieved.  Increase integral accuracy.
 Cycle   6  Pass 1  IDiag  1:
 E= -164.067801452725     Delta-E=       -0.000024213499 Rises=F Damp=F
 DIIS: error= 3.22D-05 at cycle   1 NSaved=   1.
 NSaved= 1 IEnMin= 1 EnMin= -164.067801452725     IErMin= 1 ErrMin= 3.22D-05
 ErrMax= 3.22D-05  0.00D+00 EMaxC= 1.00D-01 BMatC= 1.95D-07 BMatP= 1.95D-07
 IDIUse=1 WtCom= 1.00D+00 WtEn= 0.00D+00
 Coeff-Com:  0.100D+01
 Coeff:      0.100D+01
 Gap=     0.421 Goal=   None    Shift=    0.000
 RMSDP=7.10D-06 MaxDP=1.08D-04 DE=-2.42D-05 OVMax= 1.68D-04

 Cycle   7  Pass 1  IDiag  1:
 E= -164.067801673974     Delta-E=       -0.000000221249 Rises=F Damp=F
 DIIS: error= 1.17D-05 at cycle   2 NSaved=   2.
 NSaved= 2 IEnMin= 2 EnMin= -164.067801673974     IErMin= 2 ErrMin= 1.17D-05
 ErrMax= 1.17D-05  0.00D+00 EMaxC= 1.00D-01 BMatC= 1.04D-08 BMatP= 1.95D-07
 IDIUse=1 WtCom= 1.00D+00 WtEn= 0.00D+00
 Coeff-Com: -0.201D-03 0.100D+01
 Coeff:     -0.201D-03 0.100D+01
 Gap=     0.421 Goal=   None    Shift=    0.000
 RMSDP=1.29D-06 MaxDP=1.90D-05 DE=-2.21D-07 OVMax= 8.28D-05

 Cycle   8  Pass 1  IDiag  1:
 E= -164.067801692591     Delta-E=       -0.000000018617 Rises=F Damp=F
 DIIS: error= 5.76D-06 at cycle   3 NSaved=   3.
 NSaved= 3 IEnMin= 3 EnMin= -164.067801692591     IErMin= 3 ErrMin= 5.76D-06
 ErrMax= 5.76D-06  0.00D+00 EMaxC= 1.00D-01 BMatC= 3.35D-09 BMatP= 1.04D-08
 IDIUse=1 WtCom= 1.00D+00 WtEn= 0.00D+00
 Coeff-Com: -0.503D-01 0.317D+00 0.734D+00
 Coeff:     -0.503D-01 0.317D+00 0.734D+00
 Gap=     0.421 Goal=   None    Shift=    0.000
 RMSDP=4.70D-07 MaxDP=1.08D-05 DE=-1.86D-08 OVMax= 3.22D-05

 Cycle   9  Pass 1  IDiag  1:
 E= -164.067801697070     Delta-E=       -0.000000004480 Rises=F Damp=F
 DIIS: error= 3.36D-06 at cycle   4 NSaved=   4.
 NSaved= 4 IEnMin= 4 EnMin= -164.067801697070     IErMin= 4 ErrMin= 3.36D-06
 ErrMax= 3.36D-06  0.00D+00 EMaxC= 1.00D-01 BMatC= 4.00D-10 BMatP= 3.35D-09
 IDIUse=1 WtCom= 1.00D+00 WtEn= 0.00D+00
 Coeff-Com: -0.145D-01-0.145D-01 0.207D+00 0.822D+00
 Coeff:     -0.145D-01-0.145D-01 0.207D+00 0.822D+00
 Gap=     0.421 Goal=   None    Shift=    0.000
 RMSDP=2.53D-07 MaxDP=4.39D-06 DE=-4.48D-09 OVMax= 2.16D-05

 Cycle  10  Pass 1  IDiag  1:
 E= -164.067801697943     Delta-E=       -0.000000000873 Rises=F Damp=F
 DIIS: error= 1.07D-06 at cycle   5 NSaved=   5.
 NSaved= 5 IEnMin= 5 EnMin= -164.067801697943     IErMin= 5 ErrMin= 1.07D-06
 ErrMax= 1.07D-06  0.00D+00 EMaxC= 1.00D-01 BMatC= 8.09D-11 BMatP= 4.00D-10
 IDIUse=1 WtCom= 1.00D+00 WtEn= 0.00D+00
 Coeff-Com:  0.593D-02-0.682D-01-0.882D-01 0.249D+00 0.901D+00
 Coeff:      0.593D-02-0.682D-01-0.882D-01 0.249D+00 0.901D+00
 Gap=     0.421 Goal=   None    Shift=    0.000
 RMSDP=1.41D-07 MaxDP=1.96D-06 DE=-8.73D-10 OVMax= 1.28D-05

 Cycle  11  Pass 1  IDiag  1:
 E= -164.067801698150     Delta-E=       -0.000000000207 Rises=F Damp=F
 DIIS: error= 4.11D-07 at cycle   6 NSaved=   6.
 NSaved= 6 IEnMin= 6 EnMin= -164.067801698150     IErMin= 6 ErrMin= 4.11D-07
 ErrMax= 4.11D-07  0.00D+00 EMaxC= 1.00D-01 BMatC= 4.67D-12 BMatP= 8.09D-11
 IDIUse=1 WtCom= 1.00D+00 WtEn= 0.00D+00
 Coeff-Com:  0.232D-02-0.973D-02-0.365D-01-0.432D-01 0.137D+00 0.950D+00
 Coeff:      0.232D-02-0.973D-02-0.365D-01-0.432D-01 0.137D+00 0.950D+00
 Gap=     0.421 Goal=   None    Shift=    0.000
 RMSDP=4.42D-08 MaxDP=5.65D-07 DE=-2.07D-10 OVMax= 4.22D-06

 Cycle  12  Pass 1  IDiag  1:
 E= -164.067801698167     Delta-E=       -0.000000000017 Rises=F Damp=F
 DIIS: error= 1.13D-07 at cycle   7 NSaved=   7.
 NSaved= 7 IEnMin= 7 EnMin= -164.067801698167     IErMin= 7 ErrMin= 1.13D-07
 ErrMax= 1.13D-07  0.00D+00 EMaxC= 1.00D-01 BMatC= 8.96D-13 BMatP= 4.67D-12
 IDIUse=1 WtCom= 1.00D+00 WtEn= 0.00D+00
 Coeff-Com:  0.130D-03 0.365D-02-0.279D-02-0.377D-01-0.410D-01 0.328D+00
 Coeff-Com:  0.750D+00
 Coeff:      0.130D-03 0.365D-02-0.279D-02-0.377D-01-0.410D-01 0.328D+00
 Coeff:      0.750D+00
 Gap=     0.421 Goal=   None    Shift=    0.000
 RMSDP=1.00D-08 MaxDP=2.10D-07 DE=-1.67D-11 OVMax= 9.66D-07

 Cycle  13  Pass 1  IDiag  1:
 E= -164.067801698168     Delta-E=       -0.000000000002 Rises=F Damp=F
 DIIS: error= 3.07D-08 at cycle   8 NSaved=   8.
 NSaved= 8 IEnMin= 8 EnMin= -164.067801698168     IErMin= 8 ErrMin= 3.07D-08
 ErrMax= 3.07D-08  0.00D+00 EMaxC= 1.00D-01 BMatC= 1.45D-13 BMatP= 8.96D-13
 IDIUse=1 WtCom= 1.00D+00 WtEn= 0.00D+00
 Coeff-Com: -0.196D-03 0.269D-02 0.356D-02-0.105D-01-0.367D-01-0.145D-02
 Coeff-Com:  0.295D+00 0.748D+00
 Coeff:     -0.196D-03 0.269D-02 0.356D-02-0.105D-01-0.367D-01-0.145D-02
 Coeff:      0.295D+00 0.748D+00
 Gap=     0.421 Goal=   None    Shift=    0.000
 RMSDP=3.94D-09 MaxDP=7.60D-08 DE=-1.53D-12 OVMax= 3.36D-07

 SCF Done:  E(RwB97XD) =  -164.067801698     A.U. after   13 cycles
            NFock= 13  Conv=0.39D-08     -V/T= 2.0058
 KE= 1.631278183605D+02 PE=-6.117651851565D+02 EE= 1.692130539696D+02
 Leave Link  502 at Thu Mar  9 09:05:44 2017, MaxMem=   560463872 cpu:        25.6
 (Enter /share/apps/g09RelE.01/g09/l701.exe)
 Compute integral first derivatives.
 ... and contract with generalized density number  0.
 R6Disp: Adding Grimme-D2 dispersion energy 1st derivatives to the gradient.
 Leave Link  701 at Thu Mar  9 09:05:44 2017, MaxMem=   560463872 cpu:         0.4
 (Enter /share/apps/g09RelE.01/g09/l702.exe)
 L702 exits ... SP integral derivatives will be done elsewhere.
 Leave Link  702 at Thu Mar  9 09:05:44 2017, MaxMem=   560463872 cpu:         0.1
 (Enter /share/apps/g09RelE.01/g09/l703.exe)
 Compute integral first derivatives, UseDBF=F ICtDFT=           0.
 Integral derivatives from FoFJK, PRISM(SPDF).
 Calling FoFJK, ICntrl=      2127 FMM=F ISym2X=1 I1Cent= 0 IOpClX= 0 NMat=1 NMatS=1 NMatT=0.
 FoFJK:  IHMeth= 1 ICntrl=    2127 DoSepK=T KAlg= 0 I1Cent=   0 FoldK=F
 IRaf=         1 NMat=   1 IRICut=       1 DoRegI=T DoRafI=F ISym2E= 1.
 FoFCou: FMM=F IPFlag=           0 FMFlag=      100000 FMFlg1=         800
         NFxFlg=           0 DoJE=F BraDBF=F KetDBF=F FulRan=T
         wScrn=  0.000000 ICntrl=    2527 IOpCl=  0 I1Cent=           0 NGrid=           0
         NMat0=    1 NMatS0=      1 NMatT0=    0 NMatD0=    1 NMtDS0=    0 NMtDT0=    0
 Petite list used in FoFCou.
 Leave Link  703 at Thu Mar  9 09:05:46 2017, MaxMem=   560463872 cpu:         8.3
 (Enter /share/apps/g09RelE.01/g09/l716.exe)
 Dipole        =-6.11479610D-02-7.26932069D-02 4.44089210D-16
 ***** Axes restored to original set *****
 -------------------------------------------------------------------
 Center     Atomic                   Forces (Hartrees/Bohr)
 Number     Number              X              Y              Z
 -------------------------------------------------------------------
      1        5           0.005528638    0.016115076   -0.000000000
      2        7          -0.014301987   -0.015157149    0.000000000
      3        7           0.016682149    0.011312746    0.000000000
      4        5          -0.007266554   -0.017945389    0.000000000
      5        1          -0.000309561    0.000533387   -0.000159437
      6        1          -0.000309561    0.000533387    0.000159437
      7        1          -0.000541888    0.000154467    0.000069947
      8        1          -0.000541888    0.000154467   -0.000069947
      9        1          -0.001090599   -0.000335330   -0.000441051
     10        1          -0.001090599   -0.000335330    0.000441051
     11        1           0.001620925    0.002484833    0.000091604
     12        1           0.001620925    0.002484833   -0.000091604
 -------------------------------------------------------------------
 Cartesian Forces:  Max     0.017945389 RMS     0.006514362
 Leave Link  716 at Thu Mar  9 09:05:46 2017, MaxMem=   560463872 cpu:         0.1
 (Enter /share/apps/g09RelE.01/g09/l103.exe)

 GradGradGradGradGradGradGradGradGradGradGradGradGradGradGradGradGradGrad
 Berny optimization.
 FormGI is forming the generalized inverse of G from B-inverse, IUseBI=4.
 Internal  Forces:  Max     0.022393490 RMS     0.003615621
 Search for a local minimum.
 Step number   1 out of a maximum of   82 on scan point     2 out of     2
 All quantities printed in internal units (Hartrees-Bohrs-Radians)
 RMS Force = .97797D-03 SwitMx=.10000D-02 MixMth= 1
 Mixed Optimization -- RFO/linear search
 Second derivative matrix not updated -- first step.
 ITU=  0
     Eigenvalues ---    0.00389   0.02491   0.02701   0.03351   0.04294
     Eigenvalues ---    0.04423   0.04626   0.04774   0.06357   0.06420
     Eigenvalues ---    0.06562   0.06848   0.07309   0.07356   0.07679
     Eigenvalues ---    0.08090   0.08914   0.21609   0.24787   0.24787
     Eigenvalues ---    0.24812   0.24812   0.29406   0.30974   0.46087
     Eigenvalues ---    0.46087   0.46101   0.461011000.000001000.00000
     Eigenvalues --- 1000.000001000.000001000.000001000.000001000.00000
     Eigenvalues --- 1000.000001000.000001000.000001000.000001000.00000
     Eigenvalues --- 1000.000001000.000001000.000001000.000001000.00000
     Eigenvalues --- 1000.000001000.000001000.000001000.000001000.00000
     Eigenvalues --- 1000.000001000.000001000.000001000.000001000.00000
     Eigenvalues --- 1000.000001000.000001000.000001000.000001000.00000
     Eigenvalues --- 1000.000001000.000001000.000001000.000001000.00000
     Eigenvalues --- 1000.000001000.000001000.000001000.000001000.00000
     Eigenvalues --- 1000.000001000.00000
 RFO step:  Lambda=-5.57184641D-04 EMin= 3.89332101D-03
 Linear search not attempted -- first point.
 Iteration  1 RMS(Cart)=  0.00984496 RMS(Int)=  0.00021759
 Iteration  2 RMS(Cart)=  0.00015211 RMS(Int)=  0.00015878
 Iteration  3 RMS(Cart)=  0.00000002 RMS(Int)=  0.00015878
 Iteration  1 RMS(Cart)=  0.00000586 RMS(Int)=  0.00000250
 Iteration  2 RMS(Cart)=  0.00000156 RMS(Int)=  0.00000274
 Iteration  3 RMS(Cart)=  0.00000041 RMS(Int)=  0.00000287
 ITry= 1 IFail=0 DXMaxC= 3.78D-02 DCOld= 1.00D+10 DXMaxT= 3.00D-01 DXLimC= 3.00D+00 Rises=F
[...]
 ! A17   A(4,3,6)              110.6806         -DE/DX =    0.0001              !
 ! A18   A(5,3,6)              110.5293         -DE/DX =   -0.0001              !
 ! A19   A(2,4,3)               95.6191         -DE/DX =    0.0003              !
 ! A20   A(2,4,7)              116.5171         -DE/DX =    0.0                 !
 ! A21   A(2,4,8)              116.5171         -DE/DX =    0.0                 !
 ! A22   A(3,4,7)              101.2336         -DE/DX =   -0.0001              !
 ! A23   A(3,4,8)              101.2336         -DE/DX =   -0.0001              !
 ! A24   A(7,4,8)              119.1074         -DE/DX =    0.0                 !
 ! D1    D(3,1,2,4)              0.0            -DE/DX =    0.0                 !
 ! D2    D(3,1,2,9)           -117.5254         -DE/DX =   -0.0001              !
 ! D3    D(3,1,2,10)           117.5254         -DE/DX =    0.0001              !
 ! D4    D(11,1,2,4)           118.0928         -DE/DX =    0.0                 !
 ! D5    D(11,1,2,9)             0.5674         -DE/DX =   -0.0001              !
 ! D6    D(11,1,2,10)         -124.3817         -DE/DX =    0.0                 !
 ! D7    D(12,1,2,4)          -118.0928         -DE/DX =    0.0                 !
 ! D8    D(12,1,2,9)           124.3817         -DE/DX =    0.0                 !
 ! D9    D(12,1,2,10)           -0.5674         -DE/DX =    0.0001              !
 ! D10   D(2,1,3,4)              0.0            -DE/DX =    0.0                 !
 ! D11   D(2,1,3,5)           -112.4121         -DE/DX =    0.0003              !
 ! D12   D(2,1,3,6)            112.4121         -DE/DX =   -0.0003              !
 ! D13   D(11,1,3,4)          -102.9455         -DE/DX =   -0.0002              !
 ! D14   D(11,1,3,5)           144.6424         -DE/DX =    0.0001              !
 ! D15   D(11,1,3,6)             9.4667         -DE/DX =   -0.0004              !
 ! D16   D(12,1,3,4)           102.9455         -DE/DX =    0.0002              !
 ! D17   D(12,1,3,5)            -9.4667         -DE/DX =    0.0004              !
 ! D18   D(12,1,3,6)          -144.6424         -DE/DX =   -0.0001              !
 ! D19   D(1,2,4,3)              0.0            -DE/DX =    0.0                 !
 ! D20   D(1,2,4,7)            105.5366         -DE/DX =    0.0                 !
 ! D21   D(1,2,4,8)           -105.5366         -DE/DX =    0.0                 !
 ! D22   D(9,2,4,3)            111.7368         -DE/DX =   -0.0001              !
 ! D23   D(9,2,4,7)           -142.7266         -DE/DX =   -0.0001              !
 ! D24   D(9,2,4,8)              6.2001         -DE/DX =   -0.0001              !
 ! D25   D(10,2,4,3)          -111.7368         -DE/DX =    0.0001              !
 ! D26   D(10,2,4,7)            -6.2001         -DE/DX =    0.0001              !
 ! D27   D(10,2,4,8)           142.7266         -DE/DX =    0.0001              !
 ! D28   D(1,3,4,2)              0.0            -DE/DX =    0.0                 !
 ! D29   D(1,3,4,7)           -118.4848         -DE/DX =   -0.0001              !
 ! D30   D(1,3,4,8)            118.4848         -DE/DX =    0.0001              !
 ! D31   D(5,3,4,2)            118.5509         -DE/DX =    0.0                 !
 ! D32   D(5,3,4,7)              0.0662         -DE/DX =   -0.0001              !
 ! D33   D(5,3,4,8)           -122.9643         -DE/DX =    0.0                 !
 ! D34   D(6,3,4,2)           -118.5509         -DE/DX =    0.0                 !
 ! D35   D(6,3,4,7)            122.9643         -DE/DX =    0.0                 !
 ! D36   D(6,3,4,8)             -0.0662         -DE/DX =    0.0001              !
 --------------------------------------------------------------------------------
 Lowest energy point so far.  Saving SCF results.
 GradGradGradGradGradGradGradGradGradGradGradGradGradGradGradGradGradGrad

 Summary of Optimized Potential Surface Scan
                           1         2
     Eigenvalues --  -164.07208-164.06827
           R1           2.00295   2.10295
           R2           1.51426   1.49743
           R3           1.19834   1.19576
           R4           1.19834   1.19576
           R5           1.51325   1.50218
           R6           1.00932   1.00844
           R7           1.00932   1.00844
           R8           2.00295   2.00295
           R9           1.00924   1.00929
           R10          1.00924   1.00929
           R11          1.19800   1.19934
           R12          1.19800   1.19934
           A1          93.11752  91.75510
           A2         102.52352 100.67224
           A3         102.52352 100.67224
           A4         116.31035 117.18512
           A5         116.31035 117.18512
           A6         119.38235 120.20682
           A7          86.88040  84.42783
           A8         111.83231 111.81761
           A9         111.83231 111.81761
           A10        116.97969 117.58732
           A11        116.97969 117.58732
           A12        110.27605 110.83005
           A13         86.85335  88.19798
           A14        116.96794 117.25987
           A15        116.96794 117.25987
           A16        111.80569 110.68058
           A17        111.80569 110.68058
           A18        110.34956 110.52927
           A19         93.14873  95.61910
           A20        116.43741 116.51711
           A21        116.43741 116.51711
           A22        102.40656 101.23359
           A23        102.40656 101.23359
           A24        119.25392 119.10739
           D1           0.00000   0.00000
           D2        -117.87984-117.52544
           D3         117.87984 117.52544
           D4         117.82722 118.09282
           D5          -0.05262   0.56738
           D6        -124.29294-124.38174
           D7        -117.82722-118.09282
           D8         124.29294 124.38174
           D9           0.05262  -0.56738
           D10          0.00000   0.00000
           D11       -112.91951-112.41214
           D12        112.91951 112.41214
           D13       -105.61598-102.94545
           D14        141.46451 144.64240
           D15          7.30353   9.46669
           D16        105.61598 102.94545
           D17         -7.30353  -9.46669
           D18       -141.46451-144.64240
           D19          0.00000   0.00000
           D20        105.52478 105.53665
           D21       -105.52478-105.53665
           D22        112.96583 111.73679
           D23       -141.50940-142.72656
           D24          7.44105   6.20014
           D25       -112.96583-111.73679
           D26         -7.44105  -6.20014
           D27        141.50940 142.72656
           D28          0.00000   0.00000
           D29       -117.94710-118.48476
           D30        117.94710 118.48476
           D31        117.85160 118.55091
           D32         -0.09550   0.06615
           D33       -124.20129-122.96433
           D34       -117.85160-118.55091
           D35        124.20129 122.96433
           D36          0.09550  -0.06615
 Largest change from initial coordinates is atom   10       0.010 Angstoms.
 Leave Link  103 at Thu Mar  9 09:06:04 2017, MaxMem=   560463872 cpu:         0.0
 (Enter /share/apps/g09RelE.01/g09/l202.exe)
                          Input orientation:                          
 ---------------------------------------------------------------------
 Center     Atomic      Atomic             Coordinates (Angstroms)
 Number     Number       Type             X           Y           Z
 ---------------------------------------------------------------------
      1          5           0       -0.040782   -1.257801    0.000000
      2          7           0        1.270134    0.386552    0.000000
      3          7           0       -1.239701   -0.360649    0.000000
      4          5           0        0.010161    1.204490    0.000000
      5          1           0       -1.814773   -0.357562    0.829426
      6          1           0       -1.814773   -0.357562   -0.829426
      7          1           0       -0.282447    1.737156    1.033959
      8          1           0       -0.282447    1.737156   -1.033959
      9          1           0        1.842077    0.409903   -0.830236
     10          1           0        1.842077    0.409903    0.830236
     11          1           0        0.253852   -1.775891   -1.036633
     12          1           0        0.253852   -1.775891    1.036633
 ---------------------------------------------------------------------
                    Distance matrix (angstroms):
                    1          2          3          4          5
     1  B    0.000000
     2  N    2.102950   0.000000
     3  N    1.497428   2.618698   0.000000
     4  B    2.462819   1.502183   2.002952   0.000000
     5  H    2.155324   3.279985   1.009289   2.541326   0.000000
     6  H    2.155324   3.279985   1.009289   2.541326   1.658853
     7  H    3.177616   2.302979   2.527092   1.199343   2.603402
     8  H    3.177616   2.302979   2.527092   1.199343   3.195007
     9  H    2.648715   1.008443   3.283352   2.162540   4.088525
    10  H    2.648715   1.008443   3.283352   2.162540   3.736517
    11  H    1.195757   2.604534   2.303958   3.164912   3.126187
    12  H    1.195757   2.604534   2.303958   3.164912   2.516704
                    6          7          8          9         10
     6  H    0.000000
     7  H    3.195007   0.000000
     8  H    2.603402   2.067918   0.000000
     9  H    3.736517   3.122568   2.513307   0.000000
    10  H    4.088525   2.513307   3.122568   1.660472   0.000000
    11  H    2.516704   4.112964   3.553748   2.709752   3.284107
    12  H    3.126187   3.553748   4.112964   3.284107   2.709752
                   11         12
    11  H    0.000000
    12  H    2.073267   0.000000
 Stoichiometry    B2H8N2
 Framework group  CS[SG(B2N2),X(H8)]
 Deg. of freedom    17
 Full point group                 CS      NOp   2
 RotChk:  IX=0 Diff= 3.51D-16
 Largest Abelian subgroup         CS      NOp   2
 Largest concise Abelian subgroup CS      NOp   2
                         Standard orientation:                         
 ---------------------------------------------------------------------
 Center     Atomic      Atomic             Coordinates (Angstroms)
 Number     Number       Type             X           Y           Z
 ---------------------------------------------------------------------
      1          5           0       -0.033859   -1.256253    0.000000
      2          7           0        1.265617    0.397155    0.000000
      3          7           0       -1.238974   -0.367440    0.000000
      4          5           0        0.000000    1.206332    0.000000
      5          1           0       -1.814053   -0.368343    0.829426
      6          1           0       -1.814053   -0.368343   -0.829426
      7          1           0       -0.296297    1.736956    1.033959
      8          1           0       -0.296297    1.736956   -1.033959
      9          1           0        1.837385    0.424473   -0.830236
     10          1           0        1.837385    0.424473    0.830236
     11          1           0        0.264362   -1.772287   -1.036633
     12          1           0        0.264362   -1.772287    1.036633
 ---------------------------------------------------------------------
 Rotational constants (GHZ):     10.9932338      6.6097347      4.6691570
 Leave Link  202 at Thu Mar  9 09:06:04 2017, MaxMem=   560463872 cpu:         0.0
 (Enter /share/apps/g09RelE.01/g09/l601.exe)
 Copying SCF densities to generalized density rwf, IOpCl= 0 IROHF=0.

 **********************************************************************

            Population analysis using the SCF density.

 **********************************************************************

 Orbital symmetries:
       Occupied  (A') (A') (A') (A') (A') (A') (A') (A") (A') (A")
                 (A') (A') (A') (A") (A") (A')
       Virtual   (A') (A') (A') (A") (A') (A") (A') (A') (A") (A')
                 (A") (A') (A") (A') (A') (A") (A') (A') (A') (A")
                 (A") (A') (A') (A') (A") (A') (A') (A") (A') (A")
                 (A') (A") (A') (A') (A') (A") (A") (A') (A') (A')
                 (A") (A") (A') (A') (A") (A") (A') (A') (A') (A")
                 (A') (A") (A") (A') (A") (A') (A') (A") (A") (A')
                 (A') (A') (A") (A") (A") (A') (A') (A') (A") (A')
                 (A') (A') (A') (A') (A") (A') (A") (A") (A") (A')
                 (A') (A") (A') (A") (A') (A') (A') (A") (A') (A")
                 (A') (A') (A") (A") (A') (A') (A') (A') (A") (A")
                 (A') (A') (A') (A')
 The electronic state is 1-A'.
 Alpha  occ. eigenvalues --  -14.43323 -14.42109  -6.85193  -6.84255  -0.98025
 Alpha  occ. eigenvalues --   -0.95091  -0.62749  -0.60191  -0.59346  -0.57901
 Alpha  occ. eigenvalues --   -0.47756  -0.46833  -0.43462  -0.40243  -0.39029
 Alpha  occ. eigenvalues --   -0.33137
 Alpha virt. eigenvalues --    0.08819   0.10858   0.14966   0.15077   0.18846
 Alpha virt. eigenvalues --    0.19229   0.20447   0.20925   0.23683   0.24732
 Alpha virt. eigenvalues --    0.26387   0.26765   0.33313   0.35747   0.39180
 Alpha virt. eigenvalues --    0.43145   0.44971   0.47221   0.48111   0.50924
 Alpha virt. eigenvalues --    0.52505   0.53818   0.55203   0.57863   0.62105
 Alpha virt. eigenvalues --    0.63092   0.64834   0.68994   0.76677   0.77099
 Alpha virt. eigenvalues --    0.78418   0.79796   0.81437   0.90430   0.91277
 Alpha virt. eigenvalues --    1.04933   1.06898   1.10046   1.14671   1.17546
 Alpha virt. eigenvalues --    1.19707   1.26503   1.26652   1.29497   1.33174
 Alpha virt. eigenvalues --    1.37163   1.37930   1.43520   1.63846   1.64076
 Alpha virt. eigenvalues --    1.70230   1.71506   1.73128   1.76801   1.77086
 Alpha virt. eigenvalues --    1.83211   1.85317   1.85636   1.87591   1.93155
 Alpha virt. eigenvalues --    1.96273   2.01027   2.01623   2.02517   2.07780
 Alpha virt. eigenvalues --    2.10143   2.15608   2.19147   2.21805   2.21866
 Alpha virt. eigenvalues --    2.29041   2.39856   2.49347   2.50579   2.55609
 Alpha virt. eigenvalues --    2.56654   2.56923   2.65283   2.65485   2.69560
 Alpha virt. eigenvalues --    2.74007   2.76126   2.78600   2.80619   2.84830
 Alpha virt. eigenvalues --    2.89045   2.94086   2.95554   2.98994   3.03264
 Alpha virt. eigenvalues --    3.03807   3.15985   3.21494   3.32008   4.03718
 Alpha virt. eigenvalues --    4.12019   4.62923   4.68107   4.84083   4.85082
 Alpha virt. eigenvalues --   14.66177  14.80092  35.69176  35.73934
          Condensed to atoms (all electrons):
               1          2          3          4          5          6
     1  B    3.598987   0.144085   0.340433  -0.036123  -0.029901  -0.029901
     2  N    0.144085   6.442669  -0.069272   0.346268   0.003243   0.003243
     3  N    0.340433  -0.069272   6.425476   0.153882   0.369304   0.369304
     4  B   -0.036123   0.346268   0.153882   3.590913  -0.007314  -0.007314
     5  H   -0.029901   0.003243   0.369304  -0.007314   0.462350  -0.030339
     6  H   -0.029901   0.003243   0.369304  -0.007314  -0.030339   0.462350
     7  H    0.000279  -0.022916  -0.021195   0.432509  -0.002941   0.001912
     8  H    0.000279  -0.022916  -0.021195   0.432509   0.001912  -0.002941
     9  H   -0.005233   0.370954   0.003129  -0.032247  -0.000258  -0.000068
    10  H   -0.005233   0.370954   0.003129  -0.032247  -0.000068  -0.000258
    11  H    0.430915  -0.017263  -0.021691  -0.000142   0.005064  -0.010036
    12  H    0.430915  -0.017263  -0.021691  -0.000142  -0.010036   0.005064
               7          8          9         10         11         12
     1  B    0.000279   0.000279  -0.005233  -0.005233   0.430915   0.430915
     2  N   -0.022916  -0.022916   0.370954   0.370954  -0.017263  -0.017263
     3  N   -0.021195  -0.021195   0.003129   0.003129  -0.021691  -0.021691
     4  B    0.432509   0.432509  -0.032247  -0.032247  -0.000142  -0.000142
     5  H   -0.002941   0.001912  -0.000258  -0.000068   0.005064  -0.010036
     6  H    0.001912  -0.002941  -0.000068  -0.000258  -0.010036   0.005064
     7  H    0.697901  -0.019447   0.005332  -0.010395  -0.000805   0.001209
     8  H   -0.019447   0.697901  -0.010395   0.005332   0.001209  -0.000805
     9  H    0.005332  -0.010395   0.466876  -0.031216  -0.002147   0.001543
    10  H   -0.010395   0.005332  -0.031216   0.466876   0.001543  -0.002147
    11  H   -0.000805   0.001209  -0.002147   0.001543   0.683573  -0.019677
    12  H    0.001209  -0.000805   0.001543  -0.002147  -0.019677   0.683573
 Mulliken charges:
               1
     1  B    0.160501
     2  N   -0.531783
     3  N   -0.509614
     4  B    0.159447
     5  H    0.238982
     6  H    0.238982
     7  H   -0.061444
     8  H   -0.061444
     9  H    0.233730
    10  H    0.233730
    11  H   -0.050543
    12  H   -0.050543
 Sum of Mulliken charges =  -0.00000
 Mulliken charges with hydrogens summed into heavy atoms:
               1
     1  B    0.059415
     2  N   -0.064324
     3  N   -0.031650
     4  B    0.036559
 Electronic spatial extent (au):  <R**2>=            320.3690
 Charge=             -0.0000 electrons
 Dipole moment (field-independent basis, Debye):
    X=             -0.2164    Y=             -0.2364    Z=              0.0000  Tot=              0.3205
 Quadrupole moment (field-independent basis, Debye-Ang):
   XX=            -20.1461   YY=            -34.0852   ZZ=            -26.9145
   XY=              2.9583   XZ=              0.0000   YZ=             -0.0000
 Traceless Quadrupole moment (field-independent basis, Debye-Ang):
   XX=              6.9025   YY=             -7.0366   ZZ=              0.1341
   XY=              2.9583   XZ=              0.0000   YZ=             -0.0000
 Octapole moment (field-independent basis, Debye-Ang**2):
  XXX=             -0.2966  YYY=             -0.8040  ZZZ=              0.0000  XYY=              0.1359
  XXY=              0.2131  XXZ=             -0.0000  XZZ=              0.0785  YZZ=             -0.1259
  YYZ=              0.0000  XYZ=              0.0000
 Hexadecapole moment (field-independent basis, Debye-Ang**3):
 XXXX=           -142.0038 YYYY=           -243.4775 ZZZZ=            -66.6687 XXXY=             -6.8370
 XXXZ=              0.0000 YYYX=             -9.9883 YYYZ=             -0.0000 ZZZX=              0.0000
 ZZZY=             -0.0000 XXYY=            -68.8406 XXZZ=            -27.8939 YYZZ=            -54.3834
 XXYZ=              0.0000 YYXZ=              0.0000 ZZXY=             -1.2564
 N-N= 1.158038788945D+02 E-N=-6.127101222473D+02  KE= 1.631822016917D+02
 Symmetry A'   KE= 1.547975477514D+02
 Symmetry A"   KE= 8.384653940302D+00
 No NMR shielding tensors so no spin-rotation constants.
 Leave Link  601 at Thu Mar  9 09:06:04 2017, MaxMem=   560463872 cpu:         0.4
 (Enter /share/apps/g09RelE.01/g09/l9999.exe)
 1\1\GINC-COMPUTE-0-15\Scan\RwB97XD\6-311G(d,p)\B2H8N2\BENCSURA\09-Mar-
 2017\0\\#P RwB97XD/6-311G(d,p)int(grid=ultrafine) opt(modred,loose)\\A
 B2-mult-scan5_1.gjf\\0,1\B,-0.0407820282,-1.2578014757,0.\N,1.27013380
 2,0.3865520565,0.\N,-1.2397013303,-0.3606489167,0.\B,0.010160879,1.204
 4902208,0.\H,-1.8147728794,-0.3575620464,0.8294264271\H,-1.8147728794,
 -0.3575620464,-0.8294264271\H,-0.2824473854,1.7371563349,1.0339590812\
 H,-0.2824473854,1.7371563349,-1.0339590812\H,1.8420774912,0.409902684,
 -0.8302359827\H,1.8420774912,0.409902684,0.8302359827\H,0.2538516123,-
 1.7758914149,-1.0366332855\H,0.2538516123,-1.7758914149,1.0366332855\\
 Version=ES64L-G09RevE.01\State=1-A'\HF=-164.0720751,-164.068266\RMSD=2
 .178e-09,4.128e-09\PG=CS [SG(B2N2),X(H8)]\\@


 HO!  SUCH BUGS AND GOBLINS IN MY LIFE!

                            -- HAMLET, ACT 5, SCENE 2
 Job cpu time:       0 days  0 hours  2 minutes 24.2 seconds.
 File lengths (MBytes):  RWF=      9 Int=      0 D2E=      0 Chk=      3 Scr=      1
 Normal termination of Gaussian 09 at Thu Mar  9 09:06:04 2017.
