compute-0-9.local
 Entering Gaussian System, Link 0=g09
 Initial command:
 /share/apps/g09RelE.01/g09/l1.exe "/state/partition1/berta/Gau-4341.inp" -scrdir="/state/partition1/berta/"
 Entering Link 1 = /share/apps/g09RelE.01/g09/l1.exe PID=      4342.
  
 Copyright (c) 1988,1990,1992,1993,1995,1998,2003,2009,2015,
            Gaussian, Inc.  All Rights Reserved.
  
 This is part of the Gaussian(R) 09 program.  It is based on
 the Gaussian(R) 03 system (copyright 2003, Gaussian, Inc.),
 the Gaussian(R) 98 system (copyright 1998, Gaussian, Inc.),
 the Gaussian(R) 94 system (copyright 1995, Gaussian, Inc.),
 the Gaussian 92(TM) system (copyright 1992, Gaussian, Inc.),
 the Gaussian 90(TM) system (copyright 1990, Gaussian, Inc.),
 the Gaussian 88(TM) system (copyright 1988, Gaussian, Inc.),
 the Gaussian 86(TM) system (copyright 1986, Carnegie Mellon
 University), and the Gaussian 82(TM) system (copyright 1983,
 Carnegie Mellon University). Gaussian is a federally registered
 trademark of Gaussian, Inc.
  
 This software contains proprietary and confidential information,
 including trade secrets, belonging to Gaussian, Inc.
  
 This software is provided under written license and may be
 used, copied, transmitted, or stored only in accord with that
 written license.
  
 The following legend is applicable only to US Government
 contracts under FAR:
  
                    RESTRICTED RIGHTS LEGEND
  
 Use, reproduction and disclosure by the US Government is
 subject to restrictions as set forth in subparagraphs (a)
 and (c) of the Commercial Computer Software - Restricted
 Rights clause in FAR 52.227-19.
  
 Gaussian, Inc.
 340 Quinnipiac St., Bldg. 40, Wallingford CT 06492
  
  
 ---------------------------------------------------------------
 Warning -- This program may not be used in any manner that
 competes with the business of Gaussian, Inc. or will provide
 assistance to any competitor of Gaussian, Inc.  The licensee
 of this program is prohibited from giving any competitor of
 Gaussian, Inc. access to this program.  By using this program,
 the user acknowledges that Gaussian, Inc. is engaged in the
 business of creating and licensing software in the field of
 computational chemistry and represents and warrants to the
 licensee that it is not a competitor of Gaussian, Inc. and that
 it will not use this program in any manner prohibited above.
 ---------------------------------------------------------------
  

 Cite this work as:
 Gaussian 09, Revision E.01,
 M. J. Frisch, G. W. Trucks, H. B. Schlegel, G. E. Scuseria, 
 M. A. Robb, J. R. Cheeseman, G. Scalmani, V. Barone, B. Mennucci, 
 G. A. Petersson, H. Nakatsuji, M. Caricato, X. Li, H. P. Hratchian, 
 A. F. Izmaylov, J. Bloino, G. Zheng, J. L. Sonnenberg, M. Hada, 
 M. Ehara, K. Toyota, R. Fukuda, J. Hasegawa, M. Ishida, T. Nakajima, 
 Y. Honda, O. Kitao, H. Nakai, T. Vreven, J. A. Montgomery, Jr., 
 J. E. Peralta, F. Ogliaro, M. Bearpark, J. J. Heyd, E. Brothers, 
 K. N. Kudin, V. N. Staroverov, T. Keith, R. Kobayashi, J. Normand, 
 K. Raghavachari, A. Rendell, J. C. Burant, S. S. Iyengar, J. Tomasi, 
 M. Cossi, N. Rega, J. M. Millam, M. Klene, J. E. Knox, J. B. Cross, 
 V. Bakken, C. Adamo, J. Jaramillo, R. Gomperts, R. E. Stratmann, 
 O. Yazyev, A. J. Austin, R. Cammi, C. Pomelli, J. W. Ochterski, 
 R. L. Martin, K. Morokuma, V. G. Zakrzewski, G. A. Voth, 
 P. Salvador, J. J. Dannenberg, S. Dapprich, A. D. Daniels, 
 O. Farkas, J. B. Foresman, J. V. Ortiz, J. Cioslowski, 
 and D. J. Fox, Gaussian, Inc., Wallingford CT, 2013.
 
 ******************************************
 Gaussian 09:  ES64L-G09RevE.01 30-Nov-2015
                 9-Mar-2017 
 ******************************************
 %chk=AB-AB-NHscan.chk
 %nproc=4
 Will use up to    4 processors via shared memory.
 %mem=8605MB
 -----------------------------------------------------------
 #P RwB97XD/6-311G(d,p)int(grid=ultrafine) opt(modred,loose)
 -----------------------------------------------------------
 1/7=-1,14=-1,18=120,19=15,26=4,38=1/1,3;
 2/9=110,12=2,17=6,18=5,40=1/2;
 3/5=4,6=6,7=101,11=2,16=1,25=1,30=1,71=1,74=-58,75=-5,116=1/1,2,3;
 4//1;
 5/5=2,38=5/2;
 6/7=2,8=2,9=2,10=2,28=1/1;
 7//1,2,3,16;
 1/7=-1,14=-1,18=20,19=15,26=4/3(2);
 2/9=110/2;
 99//99;
 2/9=110/2;
 3/5=4,6=6,7=101,11=2,16=1,25=1,30=1,71=1,74=-58,75=-5,116=1/1,2,3;
 4/5=5,16=3,69=1/1;
 5/5=2,38=5/2;
 7//1,2,3,16;
 1/7=-1,14=-1,18=20,19=15,26=4/3(-5);
 2/9=110/2;
 6/7=2,8=2,9=2,10=2,19=2,28=1/1;
 99/9=1/99;
 Leave Link    1 at Thu Mar  9 18:30:18 2017, MaxMem=  1127874560 cpu:         0.3
 (Enter /share/apps/g09RelE.01/g09/l101.exe)
 ---------------------
 AB2-mult-scan10_2.gjf
 ---------------------
 Symbolic Z-matrix:
 Charge =  0 Multiplicity = 1
 B                    -0.02129  -1.38006   0. 
 N                     1.31959   0.85095   0. 
 N                    -1.30279  -0.81154   0. 
 B                     0.        1.32562   0. 
 H                    -1.82276  -0.6342    0.84252 
 H                    -1.82276  -0.6342   -0.84252 
 H                    -0.51513   1.60254   1.04292 
 H                    -0.51513   1.60254  -1.04292 
 H                     1.8455    0.69514  -0.84278 
 H                     1.8455    0.69514   0.84278 
 H                     0.48684  -1.66531  -1.04325 
 H                     0.48684  -1.66531   1.04325 
 
 Add virtual bond connecting atoms N2         and B1         Dist= 4.92D+00.
 Add virtual bond connecting atoms B4         and N3         Dist= 4.73D+00.
 Add virtual bond connecting atoms H7         and H5         Dist= 4.91D+00.
 Add virtual bond connecting atoms H8         and H6         Dist= 4.91D+00.
 The following ModRedundant input section has been read:
 B       1       2 F                                                           
 B       3       4 S   1 0.1000                                                
 
 NAtoms=     12 NQM=       12 NQMF=       0 NMMI=      0 NMMIF=      0
                NMic=       0 NMicF=      0.
                    Isotopes and Nuclear Properties:
 (Nuclear quadrupole moments (NQMom) in fm**2, nuclear magnetic moments (NMagM)
  in nuclear magnetons)

  Atom         1           2           3           4           5           6           7           8           9          10
 IAtWgt=          11          14          14          11           1           1           1           1           1           1
 AtmWgt=  11.0093053  14.0030740  14.0030740  11.0093053   1.0078250   1.0078250   1.0078250   1.0078250   1.0078250   1.0078250
 NucSpn=           3           2           2           3           1           1           1           1           1           1
 AtZEff=   0.0000000   0.0000000   0.0000000   0.0000000   0.0000000   0.0000000   0.0000000   0.0000000   0.0000000   0.0000000
 NQMom=    4.0590000   2.0440000   2.0440000   4.0590000   0.0000000   0.0000000   0.0000000   0.0000000   0.0000000   0.0000000
 NMagM=    2.6886370   0.4037610   0.4037610   2.6886370   2.7928460   2.7928460   2.7928460   2.7928460   2.7928460   2.7928460
 AtZNuc=   5.0000000   7.0000000   7.0000000   5.0000000   1.0000000   1.0000000   1.0000000   1.0000000   1.0000000   1.0000000

  Atom        11          12
 IAtWgt=           1           1
 AtmWgt=   1.0078250   1.0078250
 NucSpn=           1           1
 AtZEff=   0.0000000   0.0000000
 NQMom=    0.0000000   0.0000000
 NMagM=    2.7928460   2.7928460
 AtZNuc=   1.0000000   1.0000000
 Leave Link  101 at Thu Mar  9 18:30:18 2017, MaxMem=  1127874560 cpu:         1.8
 (Enter /share/apps/g09RelE.01/g09/l103.exe)

 GradGradGradGradGradGradGradGradGradGradGradGradGradGradGradGradGradGrad
 Berny optimization.
 Initialization pass.
                           ----------------------------
                           !    Initial Parameters    !
                           ! (Angstroms and Degrees)  !
 --------------------------                            --------------------------
 ! Name  Definition              Value          Derivative Info.                !
 --------------------------------------------------------------------------------
 ! R1    R(1,2)                  2.603          Frozen                          !
 ! R2    R(1,3)                  1.402          estimate D2E/DX2                !
 ! R3    R(1,11)                 1.195          estimate D2E/DX2                !
 ! R4    R(1,12)                 1.195          estimate D2E/DX2                !
 ! R5    R(2,4)                  1.4024         estimate D2E/DX2                !
 ! R6    R(2,9)                  1.0056         estimate D2E/DX2                !
 ! R7    R(2,10)                 1.0056         estimate D2E/DX2                !
 ! R8    R(3,4)                  2.5029         Scan                            !
 ! R9    R(3,5)                  1.0058         estimate D2E/DX2                !
 ! R10   R(3,6)                  1.0058         estimate D2E/DX2                !
 ! R11   R(4,7)                  1.1957         estimate D2E/DX2                !
 ! R12   R(4,8)                  1.1957         estimate D2E/DX2                !
 ! R13   R(5,7)                  2.5987         estimate D2E/DX2                !
 ! R14   R(6,8)                  2.5987         estimate D2E/DX2                !
 ! A1    A(2,1,3)               97.0828         estimate D2E/DX2                !
 ! A2    A(2,1,11)              89.1721         estimate D2E/DX2                !
 ! A3    A(2,1,12)              89.1721         estimate D2E/DX2                !
 ! A4    A(3,1,11)             119.0447         estimate D2E/DX2                !
 ! A5    A(3,1,12)             119.0447         estimate D2E/DX2                !
 ! A6    A(11,1,12)            121.6284         estimate D2E/DX2                !
 ! A7    A(1,2,4)               78.7775         estimate D2E/DX2                !
 ! A8    A(1,2,9)               97.8519         estimate D2E/DX2                !
 ! A9    A(1,2,10)              97.8519         estimate D2E/DX2                !
 ! A10   A(4,2,9)              122.9966         estimate D2E/DX2                !
 ! A11   A(4,2,10)             122.9966         estimate D2E/DX2                !
 ! A12   A(9,2,10)             113.8846         estimate D2E/DX2                !
 ! A13   A(1,3,4)               82.5576         estimate D2E/DX2                !
 ! A14   A(1,3,5)              122.9597         estimate D2E/DX2                !
 ! A15   A(1,3,6)              122.9597         estimate D2E/DX2                !
 ! A16   A(4,3,5)               96.8075         estimate D2E/DX2                !
 ! A17   A(4,3,6)               96.8075         estimate D2E/DX2                !
 ! A18   A(5,3,6)              113.7861         estimate D2E/DX2                !
 ! A19   A(2,4,3)              101.5821         estimate D2E/DX2                !
 ! A20   A(2,4,7)              118.9322         estimate D2E/DX2                !
 ! A21   A(2,4,8)              118.9322         estimate D2E/DX2                !
 ! A22   A(3,4,7)               88.4819         estimate D2E/DX2                !
 ! A23   A(3,4,8)               88.4819         estimate D2E/DX2                !
 ! A24   A(7,4,8)              121.4347         estimate D2E/DX2                !
 ! A25   A(3,5,7)               87.4909         estimate D2E/DX2                !
 ! A26   A(3,6,8)               87.4909         estimate D2E/DX2                !
 ! A27   A(4,7,5)               87.1446         estimate D2E/DX2                !
 ! A28   A(4,8,6)               87.1446         estimate D2E/DX2                !
 ! D1    D(3,1,2,4)              0.0            estimate D2E/DX2                !
 ! D2    D(3,1,2,9)           -122.215          estimate D2E/DX2                !
 ! D3    D(3,1,2,10)           122.215          estimate D2E/DX2                !
 ! D4    D(11,1,2,4)           119.1751         estimate D2E/DX2                !
 ! D5    D(11,1,2,9)            -3.0399         estimate D2E/DX2                !
 ! D6    D(11,1,2,10)         -118.6099         estimate D2E/DX2                !
 ! D7    D(12,1,2,4)          -119.1751         estimate D2E/DX2                !
 ! D8    D(12,1,2,9)           118.6099         estimate D2E/DX2                !
 ! D9    D(12,1,2,10)            3.0399         estimate D2E/DX2                !
 ! D10   D(2,1,3,4)              0.0            estimate D2E/DX2                !
 ! D11   D(2,1,3,5)            -93.3117         estimate D2E/DX2                !
 ! D12   D(2,1,3,6)             93.3117         estimate D2E/DX2                !
 ! D13   D(11,1,3,4)           -93.0006         estimate D2E/DX2                !
 ! D14   D(11,1,3,5)           173.6876         estimate D2E/DX2                !
 ! D15   D(11,1,3,6)             0.3111         estimate D2E/DX2                !
 ! D16   D(12,1,3,4)            93.0006         estimate D2E/DX2                !
 ! D17   D(12,1,3,5)            -0.3111         estimate D2E/DX2                !
 ! D18   D(12,1,3,6)          -173.6876         estimate D2E/DX2                !
 ! D19   D(1,2,4,3)              0.0            estimate D2E/DX2                !
 ! D20   D(1,2,4,7)             94.7257         estimate D2E/DX2                !
 ! D21   D(1,2,4,8)            -94.7257         estimate D2E/DX2                !
 ! D22   D(9,2,4,3)             92.1334         estimate D2E/DX2                !
 ! D23   D(9,2,4,7)           -173.1409         estimate D2E/DX2                !
 ! D24   D(9,2,4,8)             -2.5923         estimate D2E/DX2                !
 ! D25   D(10,2,4,3)           -92.1334         estimate D2E/DX2                !
 ! D26   D(10,2,4,7)             2.5923         estimate D2E/DX2                !
 ! D27   D(10,2,4,8)           173.1409         estimate D2E/DX2                !
 ! D28   D(1,3,4,2)              0.0            estimate D2E/DX2                !
 ! D29   D(1,3,4,7)           -119.2468         estimate D2E/DX2                !
 ! D30   D(1,3,4,8)            119.2468         estimate D2E/DX2                !
 ! D31   D(5,3,4,2)            122.4778         estimate D2E/DX2                !
 ! D32   D(5,3,4,7)              3.231          estimate D2E/DX2                !
 ! D33   D(5,3,4,8)           -118.2754         estimate D2E/DX2                !
 ! D34   D(6,3,4,2)           -122.4778         estimate D2E/DX2                !
 ! D35   D(6,3,4,7)            118.2754         estimate D2E/DX2                !
 ! D36   D(6,3,4,8)             -3.231          estimate D2E/DX2                !
 ! D37   D(1,3,5,7)             84.0355         estimate D2E/DX2                !
 ! D38   D(4,3,5,7)             -1.487          estimate D2E/DX2                !
 ! D39   D(6,3,5,7)           -102.0357         estimate D2E/DX2                !
 ! D40   D(1,3,6,8)            -84.0355         estimate D2E/DX2                !
 ! D41   D(4,3,6,8)              1.487          estimate D2E/DX2                !
 ! D42   D(5,3,6,8)            102.0357         estimate D2E/DX2                !
 ! D43   D(2,4,7,5)           -103.6485         estimate D2E/DX2                !
 ! D44   D(3,4,7,5)             -1.2427         estimate D2E/DX2                !
 ! D45   D(8,4,7,5)             86.0485         estimate D2E/DX2                !
 ! D46   D(2,4,8,6)            103.6485         estimate D2E/DX2                !
 ! D47   D(3,4,8,6)              1.2427         estimate D2E/DX2                !
 ! D48   D(7,4,8,6)            -86.0485         estimate D2E/DX2                !
 ! D49   D(3,5,7,4)              3.0957         estimate D2E/DX2                !
 ! D50   D(3,6,8,4)             -3.0957         estimate D2E/DX2                !
 --------------------------------------------------------------------------------
 Trust Radius=3.00D-01 FncErr=1.00D-07 GrdErr=1.00D-06
 Number of optimizations in scan=   2
 Number of steps in this run=    100 maximum allowed number of steps=    100.
 GradGradGradGradGradGradGradGradGradGradGradGradGradGradGradGradGradGrad

 Leave Link  103 at Thu Mar  9 18:30:18 2017, MaxMem=  1127874560 cpu:         0.0
 (Enter /share/apps/g09RelE.01/g09/l202.exe)
                          Input orientation:                          
 ---------------------------------------------------------------------
 Center     Atomic      Atomic             Coordinates (Angstroms)
 Number     Number       Type             X           Y           Z
 ---------------------------------------------------------------------
      1          5           0       -0.021288   -1.380061    0.000000
      2          7           0        1.319586    0.850952    0.000000
      3          7           0       -1.302794   -0.811541    0.000000
      4          5           0        0.000000    1.325618    0.000000
      5          1           0       -1.822763   -0.634200    0.842522
      6          1           0       -1.822763   -0.634200   -0.842522
      7          1           0       -0.515129    1.602537    1.042918
      8          1           0       -0.515129    1.602537   -1.042918
      9          1           0        1.845503    0.695140   -0.842776
     10          1           0        1.845503    0.695140    0.842776
     11          1           0        0.486836   -1.665308   -1.043251
     12          1           0        0.486836   -1.665308    1.043251
 ---------------------------------------------------------------------
                    Distance matrix (angstroms):
                    1          2          3          4          5
     1  B    0.000000
     2  N    2.602953   0.000000
     3  N    1.401953   3.104957   0.000000
     4  B    2.705763   1.402361   2.502942   0.000000
     5  H    2.124021   3.576294   1.005814   2.805921   0.000000
     6  H    2.124021   3.576294   1.005814   2.805921   1.685044
     7  H    3.198038   2.240254   2.745153   1.195709   2.598665
     8  H    3.198038   2.240254   2.745153   1.195709   3.204338
     9  H    2.915757   1.005553   3.590562   2.124536   4.250123
    10  H    2.915757   1.005553   3.590562   2.124536   3.901707
    11  H    1.194960   2.848405   2.240550   3.204843   3.154928
    12  H    1.194960   2.848405   2.240550   3.204843   2.537267
                    6          7          8          9         10
     6  H    0.000000
     7  H    3.204338   0.000000
     8  H    2.598665   2.085836   0.000000
     9  H    3.901707   3.154647   2.536929   0.000000
    10  H    4.250123   2.536929   3.154647   1.685552   0.000000
    11  H    2.537267   4.004353   3.418003   2.730912   3.312822
    12  H    3.154928   3.418003   4.004353   3.312822   2.730912
                   11         12
    11  H    0.000000
    12  H    2.086502   0.000000
 Stoichiometry    B2H8N2
 Framework group  CS[SG(B2N2),X(H8)]
 Deg. of freedom    17
 Full point group                 CS      NOp   2
 Largest Abelian subgroup         CS      NOp   2
 Largest concise Abelian subgroup CS      NOp   2
                         Standard orientation:                         
 ---------------------------------------------------------------------
 Center     Atomic      Atomic             Coordinates (Angstroms)
 Number     Number       Type             X           Y           Z
 ---------------------------------------------------------------------
      1          5           0       -0.021288   -1.380061    0.000000
      2          7           0        1.319586    0.850952    0.000000
      3          7           0       -1.302794   -0.811541    0.000000
      4          5           0        0.000000    1.325618    0.000000
      5          1           0       -1.822763   -0.634200    0.842522
      6          1           0       -1.822763   -0.634200   -0.842522
      7          1           0       -0.515129    1.602537    1.042918
      8          1           0       -0.515129    1.602537   -1.042918
      9          1           0        1.845503    0.695140   -0.842776
     10          1           0        1.845503    0.695140    0.842776
     11          1           0        0.486836   -1.665308   -1.043251
     12          1           0        0.486836   -1.665308    1.043251
 ---------------------------------------------------------------------
 Rotational constants (GHZ):     12.0581843      4.6993064      3.7447189
 Leave Link  202 at Thu Mar  9 18:30:18 2017, MaxMem=  1127874560 cpu:         0.0
 (Enter /share/apps/g09RelE.01/g09/l301.exe)
 Standard basis: 6-311G(d,p) (5D, 7F)
 Ernie: Thresh=  0.10000D-02 Tol=  0.10000D-05 Strict=F.
 There are    80 symmetry adapted cartesian basis functions of A'  symmetry.
 There are    44 symmetry adapted cartesian basis functions of A"  symmetry.
 There are    76 symmetry adapted basis functions of A'  symmetry.
 There are    44 symmetry adapted basis functions of A"  symmetry.
   120 basis functions,   192 primitive gaussians,   124 cartesian basis functions
    16 alpha electrons       16 beta electrons
       nuclear repulsion energy       110.9773805241 Hartrees.
 IExCor= 4639 DFT=T Ex+Corr=wB97XD ExCW=0 ScaHFX=  1.000000
 ScaDFX=  1.000000  1.000000  1.000000  1.000000 ScalE2=  1.000000  1.000000
 IRadAn=      5 IRanWt=     -1 IRanGd=            0 ICorTp=0 IEmpDi=121
  HFx wShort=  0.000000 wLong=  0.200000 cFull=  0.222036 cShort=  0.000000 cLong=  0.777964
  DFx wShort=  0.000000 wLong=  0.200000 cFull=  0.000000 cShort=  0.000000 cLong=  1.000000
 NAtoms=   12 NActive=   12 NUniq=    8 SFac= 2.25D+00 NAtFMM=   60 NAOKFM=F Big=F
 Integral buffers will be    131072 words long.
 Raffenetti 2 integral format.
 Two-electron integral symmetry is turned on.
 R6Disp:  Grimme-D2 Dispersion energy=       -0.0057292663 Hartrees.
 Nuclear repulsion after empirical dispersion term =      110.9716512578 Hartrees.
 Leave Link  301 at Thu Mar  9 18:30:18 2017, MaxMem=  1127874560 cpu:         0.4
 (Enter /share/apps/g09RelE.01/g09/l302.exe)
 NPDir=0 NMtPBC=     1 NCelOv=     1 NCel=       1 NClECP=     1 NCelD=      1
         NCelK=      1 NCelE2=     1 NClLst=     1 CellRange=     0.0.
 One-electron integrals computed using PRISM.
 One-electron integral symmetry used in STVInt
 NBasis=   120 RedAO= T EigKep=  6.02D-03  NBF=    76    44
 NBsUse=   120 1.00D-06 EigRej= -1.00D+00 NBFU=    76    44
 Precomputing XC quadrature grid using
 IXCGrd= 4 IRadAn=           5 IRanWt=          -1 IRanGd=           0 AccXCQ= 0.00D+00.
 Generated NRdTot=       0 NPtTot=           0 NUsed=           0 NTot=          32
 NSgBfM=   124   124   124   124   124 MxSgAt=    12 MxSgA2=    12.
 Leave Link  302 at Thu Mar  9 18:30:19 2017, MaxMem=  1127874560 cpu:         1.4
 (Enter /share/apps/g09RelE.01/g09/l303.exe)
 DipDrv:  MaxL=1.
 Leave Link  303 at Thu Mar  9 18:30:19 2017, MaxMem=  1127874560 cpu:         0.2
 (Enter /share/apps/g09RelE.01/g09/l401.exe)
 ExpMin= 9.89D-02 ExpMax= 6.29D+03 ExpMxC= 9.49D+02 IAcc=3 IRadAn=         5 AccDes= 0.00D+00
 Harris functional with IExCor= 4639 and IRadAn=       5 diagonalized for initial guess.
 HarFok:  IExCor= 4639 AccDes= 0.00D+00 IRadAn=         5 IDoV= 1 UseB2=F ITyADJ=14
 ICtDFT=  3500011 ScaDFX=  1.000000  1.000000  1.000000  1.000000
 FoFCou: FMM=F IPFlag=           0 FMFlag=      100000 FMFlg1=           0
         NFxFlg=           0 DoJE=T BraDBF=F KetDBF=T FulRan=T
         wScrn=  0.000000 ICntrl=     500 IOpCl=  0 I1Cent=   200000004 NGrid=           0
         NMat0=    1 NMatS0=      1 NMatT0=    0 NMatD0=    1 NMtDS0=    0 NMtDT0=    0
 Petite list used in FoFCou.
 Harris En= -156.199411603894    
 JPrj=0 DoOrth=F DoCkMO=F.
 Initial guess orbital symmetries:
       Occupied  (A') (A') (A') (A') (A') (A') (A') (A') (A") (A")
                 (A') (A') (A") (A') (A") (A')
       Virtual   (A') (A') (A') (A') (A") (A') (A") (A') (A") (A')
                 (A') (A") (A') (A") (A') (A") (A') (A') (A') (A")
                 (A') (A') (A") (A') (A') (A') (A") (A") (A') (A')
                 (A") (A') (A") (A') (A') (A") (A') (A") (A') (A')
                 (A') (A") (A") (A') (A") (A") (A') (A') (A') (A")
                 (A") (A') (A") (A") (A') (A') (A") (A') (A") (A')
                 (A") (A') (A") (A') (A') (A') (A') (A') (A") (A")
                 (A') (A') (A') (A') (A") (A") (A') (A") (A") (A')
                 (A') (A") (A") (A') (A') (A') (A') (A") (A") (A')
                 (A') (A') (A") (A") (A') (A') (A') (A') (A") (A")
                 (A') (A') (A') (A')
 The electronic state of the initial guess is 1-A'.
 Leave Link  401 at Thu Mar  9 18:30:20 2017, MaxMem=  1127874560 cpu:         5.8
 (Enter /share/apps/g09RelE.01/g09/l502.exe)
 Closed shell SCF:
 Using DIIS extrapolation, IDIIS=  1040.
 Integral symmetry usage will be decided dynamically.
 Keep R1 ints in memory in symmetry-blocked form, NReq=79321962.
 IVT=       66538 IEndB=       66538 NGot=  1127874560 MDV=  1114529905
 LenX=  1114529905 LenY=  1114514088
 Requested convergence on RMS density matrix=1.00D-08 within 128 cycles.
 Requested convergence on MAX density matrix=1.00D-06.
 Requested convergence on             energy=1.00D-06.
 No special actions if energy rises.
 FoFCou: FMM=F IPFlag=           0 FMFlag=           0 FMFlg1=           0
         NFxFlg=           0 DoJE=F BraDBF=F KetDBF=F FulRan=T
         wScrn=  0.000000 ICntrl=     600 IOpCl=  0 I1Cent=           0 NGrid=           0
         NMat0=    1 NMatS0=   7260 NMatT0=    0 NMatD0=    1 NMtDS0=    0 NMtDT0=    0
 Petite list used in FoFCou.
 Integral accuracy reduced to 1.0D-05 until final iterations.

 Cycle   1  Pass 0  IDiag  1:
 E= -164.019131105346    
 DIIS: error= 1.02D-01 at cycle   1 NSaved=   1.
 NSaved= 1 IEnMin= 1 EnMin= -164.019131105346     IErMin= 1 ErrMin= 1.02D-01
 ErrMax= 1.02D-01  0.00D+00 EMaxC= 1.00D-01 BMatC= 3.44D-01 BMatP= 3.44D-01
 IDIUse=3 WtCom= 0.00D+00 WtEn= 1.00D+00
 Coeff-Com:  0.100D+01
 Coeff-En:   0.100D+01
 Coeff:      0.100D+01
 Gap=     0.440 Goal=   None    Shift=    0.000
 GapD=    0.440 DampG=2.000 DampE=0.250 DampFc=0.5000 IDamp=-1.
 Damping current iteration by 5.00D-01
 RMSDP=1.50D-03 MaxDP=2.42D-02              OVMax= 8.42D-02

 Cycle   2  Pass 0  IDiag  1:
 E= -164.045351600224     Delta-E=       -0.026220494878 Rises=F Damp=T
 DIIS: error= 4.89D-02 at cycle   2 NSaved=   2.
 NSaved= 2 IEnMin= 2 EnMin= -164.045351600224     IErMin= 2 ErrMin= 4.89D-02
 ErrMax= 4.89D-02  0.00D+00 EMaxC= 1.00D-01 BMatC= 7.81D-02 BMatP= 3.44D-01
 IDIUse=3 WtCom= 5.11D-01 WtEn= 4.89D-01
 Coeff-Com: -0.877D+00 0.188D+01
 Coeff-En:   0.000D+00 0.100D+01
 Coeff:     -0.448D+00 0.145D+01
 Gap=     0.423 Goal=   None    Shift=    0.000
 RMSDP=6.20D-04 MaxDP=1.19D-02 DE=-2.62D-02 OVMax= 1.56D-02

 Cycle   3  Pass 0  IDiag  1:
 E= -164.069987440315     Delta-E=       -0.024635840091 Rises=F Damp=F
 DIIS: error= 2.47D-03 at cycle   3 NSaved=   3.
 NSaved= 3 IEnMin= 3 EnMin= -164.069987440315     IErMin= 3 ErrMin= 2.47D-03
 ErrMax= 2.47D-03  0.00D+00 EMaxC= 1.00D-01 BMatC= 2.38D-04 BMatP= 7.81D-02
 IDIUse=3 WtCom= 9.75D-01 WtEn= 2.47D-02
 Coeff-Com: -0.128D+00 0.286D+00 0.843D+00
 Coeff-En:   0.000D+00 0.000D+00 0.100D+01
 Coeff:     -0.125D+00 0.279D+00 0.846D+00
 Gap=     0.421 Goal=   None    Shift=    0.000
 RMSDP=9.69D-05 MaxDP=3.00D-03 DE=-2.46D-02 OVMax= 9.03D-03

 Cycle   4  Pass 0  IDiag  1:
 E= -164.070209099145     Delta-E=       -0.000221658830 Rises=F Damp=F
 DIIS: error= 7.10D-04 at cycle   4 NSaved=   4.
 NSaved= 4 IEnMin= 4 EnMin= -164.070209099145     IErMin= 4 ErrMin= 7.10D-04
 ErrMax= 7.10D-04  0.00D+00 EMaxC= 1.00D-01 BMatC= 4.72D-05 BMatP= 2.38D-04
 IDIUse=3 WtCom= 9.93D-01 WtEn= 7.10D-03
 Coeff-Com: -0.174D-01 0.426D-01 0.307D+00 0.668D+00
 Coeff-En:   0.000D+00 0.000D+00 0.000D+00 0.100D+01
 Coeff:     -0.172D-01 0.423D-01 0.305D+00 0.670D+00
 Gap=     0.420 Goal=   None    Shift=    0.000
 RMSDP=3.69D-05 MaxDP=1.62D-03 DE=-2.22D-04 OVMax= 1.87D-03

 Cycle   5  Pass 0  IDiag  1:
 E= -164.070248306555     Delta-E=       -0.000039207410 Rises=F Damp=F
 DIIS: error= 2.99D-04 at cycle   5 NSaved=   5.
 NSaved= 5 IEnMin= 5 EnMin= -164.070248306555     IErMin= 5 ErrMin= 2.99D-04
 ErrMax= 2.99D-04  0.00D+00 EMaxC= 1.00D-01 BMatC= 4.99D-06 BMatP= 4.72D-05
 IDIUse=3 WtCom= 9.97D-01 WtEn= 2.99D-03
 Coeff-Com:  0.255D-01-0.553D-01-0.664D-01 0.189D+00 0.907D+00
 Coeff-En:   0.000D+00 0.000D+00 0.000D+00 0.000D+00 0.100D+01
 Coeff:      0.254D-01-0.551D-01-0.662D-01 0.188D+00 0.908D+00
 Gap=     0.420 Goal=   None    Shift=    0.000
 RMSDP=2.25D-05 MaxDP=4.95D-04 DE=-3.92D-05 OVMax= 1.55D-03

 Cycle   6  Pass 0  IDiag  1:
 E= -164.070256558119     Delta-E=       -0.000008251564 Rises=F Damp=F
 DIIS: error= 5.51D-05 at cycle   6 NSaved=   6.
 NSaved= 6 IEnMin= 6 EnMin= -164.070256558119     IErMin= 6 ErrMin= 5.51D-05
 ErrMax= 5.51D-05  0.00D+00 EMaxC= 1.00D-01 BMatC= 2.58D-07 BMatP= 4.99D-06
 IDIUse=1 WtCom= 1.00D+00 WtEn= 0.00D+00
 Coeff-Com:  0.556D-02-0.121D-01-0.193D-01-0.171D-01 0.135D+00 0.908D+00
 Coeff:      0.556D-02-0.121D-01-0.193D-01-0.171D-01 0.135D+00 0.908D+00
 Gap=     0.420 Goal=   None    Shift=    0.000
 RMSDP=5.43D-06 MaxDP=1.03D-04 DE=-8.25D-06 OVMax= 4.30D-04

 Initial convergence to 1.0D-05 achieved.  Increase integral accuracy.
 Cycle   7  Pass 1  IDiag  1:
 E= -164.070258099685     Delta-E=       -0.000001541567 Rises=F Damp=F
 DIIS: error= 3.43D-05 at cycle   1 NSaved=   1.
 NSaved= 1 IEnMin= 1 EnMin= -164.070258099685     IErMin= 1 ErrMin= 3.43D-05
 ErrMax= 3.43D-05  0.00D+00 EMaxC= 1.00D-01 BMatC= 2.86D-07 BMatP= 2.86D-07
 IDIUse=1 WtCom= 1.00D+00 WtEn= 0.00D+00
 Coeff-Com:  0.100D+01
 Coeff:      0.100D+01
 Gap=     0.420 Goal=   None    Shift=    0.000
 RMSDP=5.43D-06 MaxDP=1.03D-04 DE=-1.54D-06 OVMax= 2.89D-04

 Cycle   8  Pass 1  IDiag  1:
 E= -164.070258385789     Delta-E=       -0.000000286103 Rises=F Damp=F
 DIIS: error= 3.11D-05 at cycle   2 NSaved=   2.
 NSaved= 2 IEnMin= 2 EnMin= -164.070258385789     IErMin= 2 ErrMin= 3.11D-05
 ErrMax= 3.11D-05  0.00D+00 EMaxC= 1.00D-01 BMatC= 1.15D-07 BMatP= 2.86D-07
 IDIUse=1 WtCom= 1.00D+00 WtEn= 0.00D+00
 Coeff-Com:  0.342D+00 0.658D+00
 Coeff:      0.342D+00 0.658D+00
 Gap=     0.420 Goal=   None    Shift=    0.000
 RMSDP=1.94D-06 MaxDP=8.09D-05 DE=-2.86D-07 OVMax= 1.46D-04

 Cycle   9  Pass 1  IDiag  1:
 E= -164.070258477148     Delta-E=       -0.000000091359 Rises=F Damp=F
 DIIS: error= 1.50D-05 at cycle   3 NSaved=   3.
 NSaved= 3 IEnMin= 3 EnMin= -164.070258477148     IErMin= 3 ErrMin= 1.50D-05
 ErrMax= 1.50D-05  0.00D+00 EMaxC= 1.00D-01 BMatC= 1.92D-08 BMatP= 1.15D-07
 IDIUse=1 WtCom= 1.00D+00 WtEn= 0.00D+00
 Coeff-Com: -0.770D-01 0.247D+00 0.830D+00
 Coeff:     -0.770D-01 0.247D+00 0.830D+00
 Gap=     0.420 Goal=   None    Shift=    0.000
 RMSDP=9.82D-07 MaxDP=2.66D-05 DE=-9.14D-08 OVMax= 8.24D-05

 Cycle  10  Pass 1  IDiag  1:
 E= -164.070258499560     Delta-E=       -0.000000022412 Rises=F Damp=F
 DIIS: error= 4.02D-06 at cycle   4 NSaved=   4.
 NSaved= 4 IEnMin= 4 EnMin= -164.070258499560     IErMin= 4 ErrMin= 4.02D-06
 ErrMax= 4.02D-06  0.00D+00 EMaxC= 1.00D-01 BMatC= 5.10D-10 BMatP= 1.92D-08
 IDIUse=1 WtCom= 1.00D+00 WtEn= 0.00D+00
 Coeff-Com: -0.194D-01-0.167D-01 0.176D-01 0.102D+01
 Coeff:     -0.194D-01-0.167D-01 0.176D-01 0.102D+01
 Gap=     0.420 Goal=   None    Shift=    0.000
 RMSDP=3.68D-07 MaxDP=6.43D-06 DE=-2.24D-08 OVMax= 3.44D-05

 Cycle  11  Pass 1  IDiag  1:
 E= -164.070258501267     Delta-E=       -0.000000001707 Rises=F Damp=F
 DIIS: error= 1.74D-06 at cycle   5 NSaved=   5.
 NSaved= 5 IEnMin= 5 EnMin= -164.070258501267     IErMin= 5 ErrMin= 1.74D-06
 ErrMax= 1.74D-06  0.00D+00 EMaxC= 1.00D-01 BMatC= 1.90D-10 BMatP= 5.10D-10
 IDIUse=1 WtCom= 1.00D+00 WtEn= 0.00D+00
 Coeff-Com:  0.332D-02-0.396D-01-0.109D+00 0.414D+00 0.731D+00
 Coeff:      0.332D-02-0.396D-01-0.109D+00 0.414D+00 0.731D+00
 Gap=     0.420 Goal=   None    Shift=    0.000
 RMSDP=1.43D-07 MaxDP=2.72D-06 DE=-1.71D-09 OVMax= 1.48D-05

 Cycle  12  Pass 1  IDiag  1:
 E= -164.070258501616     Delta-E=       -0.000000000350 Rises=F Damp=F
 DIIS: error= 5.23D-07 at cycle   6 NSaved=   6.
 NSaved= 6 IEnMin= 6 EnMin= -164.070258501616     IErMin= 6 ErrMin= 5.23D-07
 ErrMax= 5.23D-07  0.00D+00 EMaxC= 1.00D-01 BMatC= 1.76D-11 BMatP= 1.90D-10
 IDIUse=1 WtCom= 1.00D+00 WtEn= 0.00D+00
 Coeff-Com:  0.326D-02-0.705D-02-0.281D-01-0.857D-01 0.165D+00 0.952D+00
 Coeff:      0.326D-02-0.705D-02-0.281D-01-0.857D-01 0.165D+00 0.952D+00
 Gap=     0.420 Goal=   None    Shift=    0.000
 RMSDP=7.41D-08 MaxDP=1.20D-06 DE=-3.50D-10 OVMax= 6.86D-06

 Cycle  13  Pass 1  IDiag  1:
 E= -164.070258501661     Delta-E=       -0.000000000045 Rises=F Damp=F
 DIIS: error= 1.02D-07 at cycle   7 NSaved=   7.
 NSaved= 7 IEnMin= 7 EnMin= -164.070258501661     IErMin= 7 ErrMin= 1.02D-07
 ErrMax= 1.02D-07  0.00D+00 EMaxC= 1.00D-01 BMatC= 6.16D-13 BMatP= 1.76D-11
 IDIUse=1 WtCom= 1.00D+00 WtEn= 0.00D+00
 Coeff-Com:  0.516D-03 0.122D-02 0.937D-03-0.409D-01-0.402D-02 0.182D+00
 Coeff-Com:  0.860D+00
 Coeff:      0.516D-03 0.122D-02 0.937D-03-0.409D-01-0.402D-02 0.182D+00
 Coeff:      0.860D+00
 Gap=     0.420 Goal=   None    Shift=    0.000
 RMSDP=1.12D-08 MaxDP=1.68D-07 DE=-4.52D-11 OVMax= 1.05D-06

 Cycle  14  Pass 1  IDiag  1:
 E= -164.070258501662     Delta-E=       -0.000000000001 Rises=F Damp=F
 DIIS: error= 2.21D-08 at cycle   8 NSaved=   8.
 NSaved= 8 IEnMin= 8 EnMin= -164.070258501662     IErMin= 8 ErrMin= 2.21D-08
 ErrMax= 2.21D-08  0.00D+00 EMaxC= 1.00D-01 BMatC= 4.35D-14 BMatP= 6.16D-13
 IDIUse=1 WtCom= 1.00D+00 WtEn= 0.00D+00
 Coeff-Com: -0.185D-03 0.734D-03 0.210D-02-0.949D-04-0.135D-01-0.549D-01
 Coeff-Com:  0.720D-01 0.994D+00
 Coeff:     -0.185D-03 0.734D-03 0.210D-02-0.949D-04-0.135D-01-0.549D-01
 Coeff:      0.720D-01 0.994D+00
 Gap=     0.420 Goal=   None    Shift=    0.000
 RMSDP=4.25D-09 MaxDP=8.57D-08 DE=-9.09D-13 OVMax= 3.46D-07

 SCF Done:  E(RwB97XD) =  -164.070258502     A.U. after   14 cycles
            NFock= 14  Conv=0.42D-08     -V/T= 2.0041
 KE= 1.633984570401D+02 PE=-6.032992483507D+02 EE= 1.648588815511D+02
 Leave Link  502 at Thu Mar  9 18:30:36 2017, MaxMem=  1127874560 cpu:        63.2
 (Enter /share/apps/g09RelE.01/g09/l601.exe)
 Copying SCF densities to generalized density rwf, IOpCl= 0 IROHF=0.

 **********************************************************************

            Population analysis using the SCF density.

 **********************************************************************

 Orbital symmetries:
       Occupied  (A') (A') (A') (A') (A') (A') (A') (A') (A") (A")
                 (A') (A') (A') (A") (A") (A')
       Virtual   (A') (A') (A') (A') (A") (A") (A') (A') (A") (A')
                 (A") (A') (A') (A") (A') (A") (A') (A') (A') (A")
                 (A") (A') (A') (A') (A') (A') (A") (A") (A') (A')
                 (A") (A') (A") (A') (A') (A") (A') (A") (A') (A')
                 (A') (A") (A") (A') (A") (A") (A') (A') (A') (A")
                 (A") (A") (A') (A") (A') (A') (A') (A") (A") (A')
                 (A') (A") (A") (A') (A') (A') (A') (A') (A") (A")
                 (A') (A') (A') (A') (A") (A") (A') (A") (A') (A")
                 (A') (A") (A") (A') (A') (A') (A") (A') (A") (A')
                 (A') (A') (A") (A") (A') (A') (A') (A') (A") (A")
                 (A') (A') (A') (A')
 The electronic state is 1-A'.
 Alpha  occ. eigenvalues --  -14.42210 -14.41698  -6.83612  -6.83289  -0.96914
 Alpha  occ. eigenvalues --   -0.95798  -0.61872  -0.60833  -0.60152  -0.59035
 Alpha  occ. eigenvalues --   -0.48032  -0.47664  -0.41299  -0.40208  -0.39816
 Alpha  occ. eigenvalues --   -0.33897
 Alpha virt. eigenvalues --    0.08094   0.10935   0.13962   0.14381   0.15283
 Alpha virt. eigenvalues --    0.19509   0.20474   0.20842   0.23602   0.24344
 Alpha virt. eigenvalues --    0.27462   0.28442   0.34246   0.34682   0.38635
 Alpha virt. eigenvalues --    0.38786   0.45726   0.47303   0.50321   0.52165
 Alpha virt. eigenvalues --    0.55747   0.55880   0.56895   0.60177   0.63994
 Alpha virt. eigenvalues --    0.66126   0.69488   0.69996   0.78459   0.78562
 Alpha virt. eigenvalues --    0.81366   0.84440   0.86643   0.91272   0.94585
 Alpha virt. eigenvalues --    0.95773   0.97904   1.00034   1.01163   1.10816
 Alpha virt. eigenvalues --    1.21720   1.23784   1.24958   1.28383   1.30720
 Alpha virt. eigenvalues --    1.32128   1.38737   1.46562   1.64685   1.66199
 Alpha virt. eigenvalues --    1.68495   1.69792   1.71390   1.72960   1.75326
 Alpha virt. eigenvalues --    1.78627   1.80845   1.81264   1.88552   1.89672
 Alpha virt. eigenvalues --    2.00883   2.01432   2.01941   2.06978   2.07302
 Alpha virt. eigenvalues --    2.08625   2.13049   2.14799   2.20312   2.20994
 Alpha virt. eigenvalues --    2.26896   2.32266   2.46757   2.50491   2.54073
 Alpha virt. eigenvalues --    2.56216   2.56339   2.59313   2.59316   2.60581
 Alpha virt. eigenvalues --    2.66005   2.75006   2.76068   2.81084   2.83758
 Alpha virt. eigenvalues --    2.92609   2.93884   2.95720   2.96634   3.01342
 Alpha virt. eigenvalues --    3.11981   3.23100   3.34301   3.35830   3.95685
 Alpha virt. eigenvalues --    3.99191   4.75342   4.81701   4.86496   4.87273
 Alpha virt. eigenvalues --   14.76542  14.80711  35.73285  35.75068
          Condensed to atoms (all electrons):
               1          2          3          4          5          6
     1  B    3.588302   0.021121   0.478184   0.003389  -0.034390  -0.034390
     2  N    0.021121   6.292199  -0.021713   0.481129   0.000185   0.000185
     3  N    0.478184  -0.021713   6.296309   0.023244   0.376604   0.376604
     4  B    0.003389   0.481129   0.023244   3.582966  -0.002149  -0.002149
     5  H   -0.034390   0.000185   0.376604  -0.002149   0.466187  -0.035118
     6  H   -0.034390   0.000185   0.376604  -0.002149  -0.035118   0.466187
     7  H   -0.004713  -0.023707  -0.007372   0.435538  -0.000821   0.000441
     8  H   -0.004713  -0.023707  -0.007372   0.435538   0.000441  -0.000821
     9  H   -0.001285   0.377247   0.000105  -0.035122  -0.000003  -0.000001
    10  H   -0.001285   0.377247   0.000105  -0.035122  -0.000001  -0.000003
    11  H    0.434549  -0.005154  -0.023713  -0.004032   0.006513  -0.010675
    12  H    0.434549  -0.005154  -0.023713  -0.004032  -0.010675   0.006513
               7          8          9         10         11         12
     1  B   -0.004713  -0.004713  -0.001285  -0.001285   0.434549   0.434549
     2  N   -0.023707  -0.023707   0.377247   0.377247  -0.005154  -0.005154
     3  N   -0.007372  -0.007372   0.000105   0.000105  -0.023713  -0.023713
     4  B    0.435538   0.435538  -0.035122  -0.035122  -0.004032  -0.004032
     5  H   -0.000821   0.000441  -0.000003  -0.000001   0.006513  -0.010675
     6  H    0.000441  -0.000821  -0.000001  -0.000003  -0.010675   0.006513
     7  H    0.697146  -0.033092   0.006684  -0.010870  -0.000206   0.000798
     8  H   -0.033092   0.697146  -0.010870   0.006684   0.000798  -0.000206
     9  H    0.006684  -0.010870   0.470272  -0.035616  -0.000521   0.000356
    10  H   -0.010870   0.006684  -0.035616   0.470272   0.000356  -0.000521
    11  H   -0.000206   0.000798  -0.000521   0.000356   0.689224  -0.032812
    12  H    0.000798  -0.000206   0.000356  -0.000521  -0.032812   0.689224
 Mulliken charges:
               1
     1  B    0.120683
     2  N   -0.469879
     3  N   -0.467270
     4  B    0.120804
     5  H    0.233226
     6  H    0.233226
     7  H   -0.059825
     8  H   -0.059825
     9  H    0.228757
    10  H    0.228757
    11  H   -0.054326
    12  H   -0.054326
 Sum of Mulliken charges =   0.00000
 Mulliken charges with hydrogens summed into heavy atoms:
               1
     1  B    0.012031
     2  N   -0.012366
     3  N   -0.000818
     4  B    0.001154
 Electronic spatial extent (au):  <R**2>=            367.7285
 Charge=             -0.0000 electrons
 Dipole moment (field-independent basis, Debye):
    X=             -0.0544    Y=             -0.0938    Z=              0.0000  Tot=              0.1084
 Quadrupole moment (field-independent basis, Debye-Ang):
   XX=            -21.2080   YY=            -33.0879   ZZ=            -26.4295
   XY=              2.1154   XZ=             -0.0000   YZ=              0.0000
 Traceless Quadrupole moment (field-independent basis, Debye-Ang):
   XX=              5.7005   YY=             -6.1794   ZZ=              0.4789
   XY=              2.1154   XZ=             -0.0000   YZ=              0.0000
 Octapole moment (field-independent basis, Debye-Ang**2):
  XXX=              0.3672  YYY=             -0.2309  ZZZ=              0.0000  XYY=             -0.0140
  XXY=              0.3617  XXZ=             -0.0000  XZZ=              0.1223  YZZ=              0.1676
  YYZ=              0.0000  XYZ=             -0.0000
 Hexadecapole moment (field-independent basis, Debye-Ang**3):
 XXXX=           -159.2329 YYYY=           -282.1209 ZZZZ=            -66.0135 XXXY=            -27.1842
 XXXZ=             -0.0000 YYYX=            -35.0355 YYYZ=             -0.0000 ZZZX=             -0.0000
 ZZZY=              0.0000 XXYY=            -84.8505 XXZZ=            -29.6099 YYZZ=            -60.9078
 XXYZ=              0.0000 YYXZ=             -0.0000 ZZXY=             -5.5150
 N-N= 1.109716512578D+02 E-N=-6.032992489228D+02  KE= 1.633984570401D+02
 Symmetry A'   KE= 1.550144104792D+02
 Symmetry A"   KE= 8.384046560918D+00
 No NMR shielding tensors so no spin-rotation constants.
 Leave Link  601 at Thu Mar  9 18:30:37 2017, MaxMem=  1127874560 cpu:         0.9
 (Enter /share/apps/g09RelE.01/g09/l701.exe)
 Compute integral first derivatives.
 ... and contract with generalized density number  0.
 R6Disp: Adding Grimme-D2 dispersion energy 1st derivatives to the gradient.
 Leave Link  701 at Thu Mar  9 18:30:37 2017, MaxMem=  1127874560 cpu:         0.9
 (Enter /share/apps/g09RelE.01/g09/l702.exe)
 L702 exits ... SP integral derivatives will be done elsewhere.
 Leave Link  702 at Thu Mar  9 18:30:37 2017, MaxMem=  1127874560 cpu:         0.2
 (Enter /share/apps/g09RelE.01/g09/l703.exe)
 Compute integral first derivatives, UseDBF=F ICtDFT=           0.
 Integral derivatives from FoFJK, PRISM(SPDF).
 Calling FoFJK, ICntrl=      2127 FMM=F ISym2X=1 I1Cent= 0 IOpClX= 0 NMat=1 NMatS=1 NMatT=0.
 FoFJK:  IHMeth= 1 ICntrl=    2127 DoSepK=T KAlg= 0 I1Cent=   0 FoldK=F
 IRaf=         1 NMat=   1 IRICut=       1 DoRegI=T DoRafI=F ISym2E= 1.
 FoFCou: FMM=F IPFlag=           0 FMFlag=      100000 FMFlg1=         800
         NFxFlg=           0 DoJE=F BraDBF=F KetDBF=F FulRan=T
         wScrn=  0.000000 ICntrl=    2527 IOpCl=  0 I1Cent=           0 NGrid=           0
         NMat0=    1 NMatS0=      1 NMatT0=    0 NMatD0=    1 NMtDS0=    0 NMtDT0=    0
 Petite list used in FoFCou.
 Leave Link  703 at Thu Mar  9 18:30:42 2017, MaxMem=  1127874560 cpu:        19.2
 (Enter /share/apps/g09RelE.01/g09/l716.exe)
 Dipole        =-2.13940754D-02-3.68998666D-02 2.22044605D-16
 ***** Axes restored to original set *****
 -------------------------------------------------------------------
 Center     Atomic                   Forces (Hartrees/Bohr)
 Number     Number              X              Y              Z
 -------------------------------------------------------------------
      1        5          -0.003096865   -0.004183535    0.000000000
      2        7           0.003602637    0.005201781   -0.000000000
      3        7          -0.004258381   -0.007997583    0.000000000
      4        5           0.003778093    0.007413391   -0.000000000
      5        1           0.000147521    0.000146622    0.000021125
      6        1           0.000147521    0.000146622   -0.000021125
      7        1          -0.000004159    0.000033150   -0.000003859
      8        1          -0.000004159    0.000033150    0.000003859
      9        1          -0.000103913   -0.000272263   -0.000005106
     10        1          -0.000103913   -0.000272263    0.000005106
     11        1          -0.000052190   -0.000124536   -0.000036024
     12        1          -0.000052190   -0.000124536    0.000036024
 -------------------------------------------------------------------
 Cartesian Forces:  Max     0.007997583 RMS     0.002465068
 Leave Link  716 at Thu Mar  9 18:30:42 2017, MaxMem=  1127874560 cpu:         0.2
 (Enter /share/apps/g09RelE.01/g09/l103.exe)

 GradGradGradGradGradGradGradGradGradGradGradGradGradGradGradGradGradGrad
 Berny optimization.
 FormGI is forming the generalized inverse of G from B-inverse, IUseBI=4.
 Internal  Forces:  Max     0.005860923 RMS     0.000872991
 Search for a local minimum.
 Step number   1 out of a maximum of  100 on scan point     1 out of     2
 All quantities printed in internal units (Hartrees-Bohrs-Radians)
 RMS Force = .90342D-04 SwitMx=.10000D-02 MixMth= 2
 Mixed Optimization -- En-DIIS/RFO-DIIS
 Second derivative matrix not updated -- first step.
 ITU=  0
     Eigenvalues ---    0.00538   0.02257   0.02874   0.03386   0.03895
     Eigenvalues ---    0.03950   0.04463   0.04851   0.05221   0.05400
     Eigenvalues ---    0.07248   0.07525   0.08058   0.08242   0.08360
     Eigenvalues ---    0.08610   0.09177   0.12656   0.24292   0.24335
     Eigenvalues ---    0.25037   0.25037   0.40699   0.44746   0.44760
     Eigenvalues ---    0.45233   0.46725   0.467251000.000001000.00000
     Eigenvalues --- 1000.000001000.000001000.000001000.000001000.00000
     Eigenvalues --- 1000.000001000.000001000.000001000.000001000.00000
     Eigenvalues --- 1000.000001000.000001000.000001000.000001000.00000
     Eigenvalues --- 1000.000001000.000001000.000001000.000001000.00000
     Eigenvalues --- 1000.000001000.000001000.000001000.000001000.00000
     Eigenvalues --- 1000.000001000.000001000.000001000.000001000.00000
     Eigenvalues --- 1000.000001000.000001000.000001000.000001000.00000
     Eigenvalues --- 1000.000001000.000001000.000001000.000001000.00000
     Eigenvalues --- 1000.000001000.000001000.000001000.000001000.00000
     Eigenvalues --- 1000.000001000.000001000.000001000.000001000.00000
     Eigenvalues --- 1000.000001000.000001000.000001000.000001000.00000
     Eigenvalues --- 1000.000001000.000001000.000001000.000001000.00000
     Eigenvalues --- 1000.000001000.00000
 RFO step:  Lambda=-5.50651101D-06 EMin= 5.38302469D-03
 Linear search not attempted -- first point.
 Iteration  1 RMS(Cart)=  0.00062280 RMS(Int)=  0.00000115
 Iteration  2 RMS(Cart)=  0.00000069 RMS(Int)=  0.00000087
 Iteration  1 RMS(Cart)=  0.00000001 RMS(Int)=  0.00000000
 ITry= 1 IFail=0 DXMaxC= 2.35D-03 DCOld= 1.00D+10 DXMaxT= 3.00D-01 DXLimC= 3.00D+00 Rises=F
 ClnCor:  largest displacement from symmetrization is 2.46D-12 for atom    10.
 Variable       Old X    -DE/DX   Delta X   Delta X   Delta X     New X
                                 (Linear)    (Quad)   (Total)
    R1        4.91887   0.00586   0.00000   0.00000  -0.00000   4.91887
    R2        2.64931  -0.00040   0.00000  -0.00115  -0.00115   2.64815
    R3        2.25815   0.00004   0.00000   0.00015   0.00015   2.25830
    R4        2.25815   0.00004   0.00000   0.00015   0.00015   2.25830
    R5        2.65008   0.00047   0.00000   0.00137   0.00137   2.65144
    R6        1.90022  -0.00001   0.00000  -0.00002  -0.00002   1.90021
    R7        1.90022  -0.00001   0.00000  -0.00002  -0.00002   1.90021
    R8        4.72988   0.00429   0.00000   0.00000   0.00000   4.72988
    R9        1.90071  -0.00014   0.00000   0.00000   0.00000   1.90071
   R10        1.90071  -0.00014   0.00000   0.00000   0.00000   1.90071
   R11        2.25956  -0.00007   0.00000  -0.00011  -0.00011   2.25946
   R12        2.25956  -0.00007   0.00000  -0.00011  -0.00011   2.25946
   R13        4.91076   0.00197   0.00000  -0.00095  -0.00095   4.90982
   R14        4.91076   0.00197   0.00000  -0.00095  -0.00095   4.90982
    A1        1.69441  -0.00020   0.00000   0.00049   0.00049   1.69491
    A2        1.55635   0.00014   0.00000   0.00116   0.00116   1.55750
    A3        1.55635   0.00014   0.00000   0.00116   0.00116   1.55750
    A4        2.07772  -0.00001   0.00000  -0.00014  -0.00014   2.07758
    A5        2.07772  -0.00001   0.00000  -0.00014  -0.00014   2.07758
    A6        2.12282   0.00001   0.00000  -0.00001  -0.00002   2.12280
    A7        1.37493  -0.00034   0.00000  -0.00033  -0.00033   1.37459
    A8        1.70784   0.00004   0.00000  -0.00213  -0.00213   1.70571
    A9        1.70784   0.00004   0.00000  -0.00213  -0.00213   1.70571
   A10        2.14670   0.00001   0.00000   0.00020   0.00020   2.14689
   A11        2.14670   0.00001   0.00000   0.00020   0.00020   2.14689
   A12        1.98766  -0.00000   0.00000  -0.00008  -0.00009   1.98757
   A13        1.44090   0.00034   0.00000   0.00003   0.00003   1.44093
   A14        2.14605  -0.00010   0.00000  -0.00016  -0.00016   2.14590
   A15        2.14605  -0.00010   0.00000  -0.00016  -0.00016   2.14590
   A16        1.68961  -0.00058   0.00000  -0.00081  -0.00081   1.68880
   A17        1.68961  -0.00058   0.00000  -0.00081  -0.00081   1.68880
   A18        1.98594   0.00027   0.00000   0.00048   0.00047   1.98642
   A19        1.77294   0.00020   0.00000  -0.00019  -0.00019   1.77275
   A20        2.07576   0.00013   0.00000   0.00004   0.00004   2.07580
   A21        2.07576   0.00013   0.00000   0.00004   0.00004   2.07580
   A22        1.54430  -0.00053   0.00000   0.00027   0.00027   1.54457
   A23        1.54430  -0.00053   0.00000   0.00027   0.00027   1.54457
   A24        2.11943  -0.00012   0.00000  -0.00015  -0.00015   2.11929
   A25        1.52700   0.00053   0.00000   0.00077   0.00077   1.52778
   A26        1.52700   0.00053   0.00000   0.00077   0.00077   1.52778
   A27        1.52096   0.00058   0.00000  -0.00022  -0.00022   1.52074
   A28        1.52096   0.00058   0.00000  -0.00022  -0.00022   1.52074
    D1        0.00000   0.00000   0.00000   0.00000   0.00000   0.00000
    D2       -2.13305   0.00001   0.00000  -0.00051  -0.00051  -2.13356
    D3        2.13305  -0.00001   0.00000   0.00051   0.00051   2.13356
    D4        2.08000  -0.00000   0.00000   0.00004   0.00004   2.08003
    D5       -0.05306   0.00001   0.00000  -0.00047  -0.00047  -0.05353
    D6       -2.07013  -0.00001   0.00000   0.00054   0.00054  -2.06959
    D7       -2.08000   0.00000   0.00000  -0.00004  -0.00004  -2.08003
    D8        2.07013   0.00001   0.00000  -0.00054  -0.00054   2.06959
    D9        0.05306  -0.00001   0.00000   0.00047   0.00047   0.05353
   D10        0.00000  -0.00000   0.00000  -0.00000   0.00000   0.00000
   D11       -1.62860   0.00046   0.00000   0.00093   0.00093  -1.62766
   D12        1.62860  -0.00046   0.00000  -0.00093  -0.00093   1.62766
   D13       -1.62317  -0.00005   0.00000  -0.00159  -0.00159  -1.62476
   D14        3.03142   0.00041   0.00000  -0.00066  -0.00066   3.03076
   D15        0.00543  -0.00051   0.00000  -0.00252  -0.00252   0.00291
   D16        1.62317   0.00005   0.00000   0.00159   0.00159   1.62476
   D17       -0.00543   0.00051   0.00000   0.00252   0.00252  -0.00291
   D18       -3.03142  -0.00041   0.00000   0.00066   0.00066  -3.03076
   D19        0.00000  -0.00000   0.00000  -0.00000   0.00000   0.00000
   D20        1.65328  -0.00047   0.00000   0.00022   0.00022   1.65349
   D21       -1.65328   0.00047   0.00000  -0.00022  -0.00022  -1.65349
   D22        1.60803  -0.00017   0.00000  -0.00282  -0.00282   1.60522
   D23       -3.02188  -0.00064   0.00000  -0.00260  -0.00260  -3.02448
   D24       -0.04524   0.00030   0.00000  -0.00303  -0.00303  -0.04828
   D25       -1.60803   0.00017   0.00000   0.00282   0.00282  -1.60522
   D26        0.04524  -0.00030   0.00000   0.00303   0.00303   0.04828
   D27        3.02188   0.00064   0.00000   0.00260   0.00260   3.02448
   D28        0.00000   0.00000   0.00000   0.00000   0.00000   0.00000
   D29       -2.08125  -0.00004   0.00000  -0.00009  -0.00009  -2.08134
   D30        2.08125   0.00004   0.00000   0.00009   0.00009   2.08134
   D31        2.13764  -0.00003   0.00000  -0.00009  -0.00009   2.13755
   D32        0.05639  -0.00007   0.00000  -0.00018  -0.00018   0.05621
   D33       -2.06430   0.00001   0.00000  -0.00001  -0.00001  -2.06430
   D34       -2.13764   0.00003   0.00000   0.00009   0.00009  -2.13755
   D35        2.06430  -0.00001   0.00000   0.00001   0.00001   2.06430
   D36       -0.05639   0.00007   0.00000   0.00018   0.00018  -0.05621
   D37        1.46670   0.00007   0.00000  -0.00041  -0.00041   1.46628
   D38       -0.02595   0.00004   0.00000   0.00008   0.00008  -0.02587
   D39       -1.78086   0.00090   0.00000   0.00126   0.00126  -1.77960
   D40       -1.46670  -0.00007   0.00000   0.00041   0.00041  -1.46628
   D41        0.02595  -0.00004   0.00000  -0.00008  -0.00008   0.02587
   D42        1.78086  -0.00090   0.00000  -0.00126  -0.00126   1.77960
   D43       -1.80901   0.00009   0.00000   0.00012   0.00012  -1.80888
   D44       -0.02169   0.00004   0.00000   0.00006   0.00006  -0.02163
   D45        1.50183  -0.00091   0.00000   0.00055   0.00055   1.50238
   D46        1.80901  -0.00009   0.00000  -0.00012  -0.00012   1.80888
   D47        0.02169  -0.00004   0.00000  -0.00006  -0.00006   0.02163
   D48       -1.50183   0.00091   0.00000  -0.00055  -0.00055  -1.50238
   D49        0.05403  -0.00004   0.00000  -0.00016  -0.00016   0.05387
   D50       -0.05403   0.00004   0.00000   0.00016   0.00016  -0.05387
         Item               Value     Threshold  Converged?
 Maximum Force            0.000514     0.002500     YES
 RMS     Force            0.000090     0.001667     YES
 Maximum Displacement     0.002348     0.010000     YES
 RMS     Displacement     0.000623     0.006667     YES
 Predicted change in Energy=-2.754098D-06
 Optimization completed.
    -- Stationary point found.
                           ----------------------------
                           !   Optimized Parameters   !
                           ! (Angstroms and Degrees)  !
 --------------------------                            --------------------------
 ! Name  Definition              Value          Derivative Info.                !
 --------------------------------------------------------------------------------
 ! R1    R(1,2)                  2.603          -DE/DX =    0.0059              !
 ! R2    R(1,3)                  1.402          -DE/DX =   -0.0004              !
 ! R3    R(1,11)                 1.195          -DE/DX =    0.0                 !
 ! R4    R(1,12)                 1.195          -DE/DX =    0.0                 !
 ! R5    R(2,4)                  1.4024         -DE/DX =    0.0005              !
 ! R6    R(2,9)                  1.0056         -DE/DX =    0.0                 !
 ! R7    R(2,10)                 1.0056         -DE/DX =    0.0                 !
 ! R8    R(3,4)                  2.5029         -DE/DX =    0.0043              !
 ! R9    R(3,5)                  1.0058         -DE/DX =   -0.0001              !
 ! R10   R(3,6)                  1.0058         -DE/DX =   -0.0001              !
 ! R11   R(4,7)                  1.1957         -DE/DX =   -0.0001              !
 ! R12   R(4,8)                  1.1957         -DE/DX =   -0.0001              !
 ! R13   R(5,7)                  2.5987         -DE/DX =    0.002               !
 ! R14   R(6,8)                  2.5987         -DE/DX =    0.002               !
 ! A1    A(2,1,3)               97.0828         -DE/DX =   -0.0002              !
 ! A2    A(2,1,11)              89.1721         -DE/DX =    0.0001              !
 ! A3    A(2,1,12)              89.1721         -DE/DX =    0.0001              !
 ! A4    A(3,1,11)             119.0447         -DE/DX =    0.0                 !
 ! A5    A(3,1,12)             119.0447         -DE/DX =    0.0                 !
 ! A6    A(11,1,12)            121.6284         -DE/DX =    0.0                 !
 ! A7    A(1,2,4)               78.7775         -DE/DX =   -0.0003              !
 ! A8    A(1,2,9)               97.8519         -DE/DX =    0.0                 !
 ! A9    A(1,2,10)              97.8519         -DE/DX =    0.0                 !
 ! A10   A(4,2,9)              122.9966         -DE/DX =    0.0                 !
 ! A11   A(4,2,10)             122.9966         -DE/DX =    0.0                 !
 ! A12   A(9,2,10)             113.8846         -DE/DX =    0.0                 !
 ! A13   A(1,3,4)               82.5576         -DE/DX =    0.0003              !
 ! A14   A(1,3,5)              122.9597         -DE/DX =   -0.0001              !
 ! A15   A(1,3,6)              122.9597         -DE/DX =   -0.0001              !
 ! A16   A(4,3,5)               96.8075         -DE/DX =   -0.0006              !
 ! A17   A(4,3,6)               96.8075         -DE/DX =   -0.0006              !
 ! A18   A(5,3,6)              113.7861         -DE/DX =    0.0003              !
 ! A19   A(2,4,3)              101.5821         -DE/DX =    0.0002              !
 ! A20   A(2,4,7)              118.9322         -DE/DX =    0.0001              !
 ! A21   A(2,4,8)              118.9322         -DE/DX =    0.0001              !
 ! A22   A(3,4,7)               88.4819         -DE/DX =   -0.0005              !
 ! A23   A(3,4,8)               88.4819         -DE/DX =   -0.0005              !
 ! A24   A(7,4,8)              121.4347         -DE/DX =   -0.0001              !
 ! A25   A(3,5,7)               87.4909         -DE/DX =    0.0005              !
 ! A26   A(3,6,8)               87.4909         -DE/DX =    0.0005              !
 ! A27   A(4,7,5)               87.1446         -DE/DX =    0.0006              !
 ! A28   A(4,8,6)               87.1446         -DE/DX =    0.0006              !
 ! D1    D(3,1,2,4)              0.0            -DE/DX =    0.0                 !
 ! D2    D(3,1,2,9)           -122.215          -DE/DX =    0.0                 !
 ! D3    D(3,1,2,10)           122.215          -DE/DX =    0.0                 !
 ! D4    D(11,1,2,4)           119.1751         -DE/DX =    0.0                 !
 ! D5    D(11,1,2,9)            -3.0399         -DE/DX =    0.0                 !
 ! D6    D(11,1,2,10)         -118.6099         -DE/DX =    0.0                 !
 ! D7    D(12,1,2,4)          -119.1751         -DE/DX =    0.0                 !
 ! D8    D(12,1,2,9)           118.6099         -DE/DX =    0.0                 !
 ! D9    D(12,1,2,10)            3.0399         -DE/DX =    0.0                 !
 ! D10   D(2,1,3,4)              0.0            -DE/DX =    0.0                 !
 ! D11   D(2,1,3,5)            -93.3117         -DE/DX =    0.0005              !
 ! D12   D(2,1,3,6)             93.3117         -DE/DX =   -0.0005              !
 ! D13   D(11,1,3,4)           -93.0006         -DE/DX =    0.0                 !
 ! D14   D(11,1,3,5)           173.6876         -DE/DX =    0.0004              !
 ! D15   D(11,1,3,6)             0.3111         -DE/DX =   -0.0005              !
 ! D16   D(12,1,3,4)            93.0006         -DE/DX =    0.0                 !
 ! D17   D(12,1,3,5)            -0.3111         -DE/DX =    0.0005              !
 ! D18   D(12,1,3,6)          -173.6876         -DE/DX =   -0.0004              !
 ! D19   D(1,2,4,3)              0.0            -DE/DX =    0.0                 !
 ! D20   D(1,2,4,7)             94.7257         -DE/DX =   -0.0005              !
 ! D21   D(1,2,4,8)            -94.7257         -DE/DX =    0.0005              !
 ! D22   D(9,2,4,3)             92.1334         -DE/DX =   -0.0002              !
 ! D23   D(9,2,4,7)           -173.1409         -DE/DX =   -0.0006              !
 ! D24   D(9,2,4,8)             -2.5923         -DE/DX =    0.0003              !
 ! D25   D(10,2,4,3)           -92.1334         -DE/DX =    0.0002              !
 ! D26   D(10,2,4,7)             2.5923         -DE/DX =   -0.0003              !
 ! D27   D(10,2,4,8)           173.1409         -DE/DX =    0.0006              !
 ! D28   D(1,3,4,2)              0.0            -DE/DX =    0.0                 !
 ! D29   D(1,3,4,7)           -119.2468         -DE/DX =    0.0                 !
 ! D30   D(1,3,4,8)            119.2468         -DE/DX =    0.0                 !
 ! D31   D(5,3,4,2)            122.4778         -DE/DX =    0.0                 !
 ! D32   D(5,3,4,7)              3.231          -DE/DX =   -0.0001              !
 ! D33   D(5,3,4,8)           -118.2754         -DE/DX =    0.0                 !
 ! D34   D(6,3,4,2)           -122.4778         -DE/DX =    0.0                 !
 ! D35   D(6,3,4,7)            118.2754         -DE/DX =    0.0                 !
 ! D36   D(6,3,4,8)             -3.231          -DE/DX =    0.0001              !
 ! D37   D(1,3,5,7)             84.0355         -DE/DX =    0.0001              !
 ! D38   D(4,3,5,7)             -1.487          -DE/DX =    0.0                 !
 ! D39   D(6,3,5,7)           -102.0357         -DE/DX =    0.0009              !
 ! D40   D(1,3,6,8)            -84.0355         -DE/DX =   -0.0001              !
 ! D41   D(4,3,6,8)              1.487          -DE/DX =    0.0                 !
 ! D42   D(5,3,6,8)            102.0357         -DE/DX =   -0.0009              !
 ! D43   D(2,4,7,5)           -103.6485         -DE/DX =    0.0001              !
 ! D44   D(3,4,7,5)             -1.2427         -DE/DX =    0.0                 !
 ! D45   D(8,4,7,5)             86.0485         -DE/DX =   -0.0009              !
 ! D46   D(2,4,8,6)            103.6485         -DE/DX =   -0.0001              !
 ! D47   D(3,4,8,6)              1.2427         -DE/DX =    0.0                 !
 ! D48   D(7,4,8,6)            -86.0485         -DE/DX =    0.0009              !
 ! D49   D(3,5,7,4)              3.0957         -DE/DX =    0.0                 !
 ! D50   D(3,6,8,4)             -3.0957         -DE/DX =    0.0                 !
 --------------------------------------------------------------------------------
 Lowest energy point so far.  Saving SCF results.
 Iteration  1 RMS(Cart)=  0.00772216 RMS(Int)=  0.01547371
 Iteration  2 RMS(Cart)=  0.00007738 RMS(Int)=  0.01547353
 Iteration  3 RMS(Cart)=  0.00000058 RMS(Int)=  0.01547353
 Iteration  1 RMS(Cart)=  0.00435915 RMS(Int)=  0.01048926
 Iteration  2 RMS(Cart)=  0.00323095 RMS(Int)=  0.01155915
 Iteration  3 RMS(Cart)=  0.00227413 RMS(Int)=  0.01331293
 Iteration  4 RMS(Cart)=  0.00157601 RMS(Int)=  0.01484304
 Iteration  5 RMS(Cart)=  0.00108837 RMS(Int)=  0.01600681
 Iteration  6 RMS(Cart)=  0.00075109 RMS(Int)=  0.01685024
 Iteration  7 RMS(Cart)=  0.00051828 RMS(Int)=  0.01744859
 Iteration  8 RMS(Cart)=  0.00035764 RMS(Int)=  0.01786845
 Iteration  9 RMS(Cart)=  0.00024680 RMS(Int)=  0.01816126
 Iteration 10 RMS(Cart)=  0.00017031 RMS(Int)=  0.01836473
 Iteration 11 RMS(Cart)=  0.00011753 RMS(Int)=  0.01850578
 Iteration 12 RMS(Cart)=  0.00008111 RMS(Int)=  0.01860342
 Iteration 13 RMS(Cart)=  0.00005598 RMS(Int)=  0.01867094
 Iteration 14 RMS(Cart)=  0.00003863 RMS(Int)=  0.01871761
 Iteration 15 RMS(Cart)=  0.00002666 RMS(Int)=  0.01874984
 Iteration 16 RMS(Cart)=  0.00001840 RMS(Int)=  0.01877210
 Iteration 17 RMS(Cart)=  0.00001270 RMS(Int)=  0.01878747
 Iteration 18 RMS(Cart)=  0.00000876 RMS(Int)=  0.01879808
 Iteration 19 RMS(Cart)=  0.00000605 RMS(Int)=  0.01880541
 Iteration 20 RMS(Cart)=  0.00000417 RMS(Int)=  0.01881046
 Iteration 21 RMS(Cart)=  0.00000288 RMS(Int)=  0.01881395
 Iteration 22 RMS(Cart)=  0.00000199 RMS(Int)=  0.01881636
 Iteration 23 RMS(Cart)=  0.00000137 RMS(Int)=  0.01881802
 Iteration 24 RMS(Cart)=  0.00000095 RMS(Int)=  0.01881917
 GradGradGradGradGradGradGradGradGradGradGradGradGradGradGradGradGradGrad

 Leave Link  103 at Thu Mar  9 18:30:42 2017, MaxMem=  1127874560 cpu:         0.2
 (Enter /share/apps/g09RelE.01/g09/l202.exe)
                          Input orientation:                          
 ---------------------------------------------------------------------
 Center     Atomic      Atomic             Coordinates (Angstroms)
 Number     Number       Type             X           Y           Z
 ---------------------------------------------------------------------
      1          5           0       -0.021080   -1.378011    0.000000
      2          7           0        1.320440    0.852617    0.000000
      3          7           0       -1.329703   -0.851418    0.000000
      4          5           0        0.028649    1.368975    0.000000
      5          1           0       -1.839470   -0.663383    0.842438
      6          1           0       -1.839470   -0.663383   -0.842438
      7          1           0       -0.501712    1.628233    1.038374
      8          1           0       -0.501712    1.628233   -1.038374
      9          1           0        1.840187    0.680209   -0.843379
     10          1           0        1.840187    0.680209    0.843379
     11          1           0        0.494041   -1.650488   -1.043339
     12          1           0        0.494041   -1.650488    1.043339
 ---------------------------------------------------------------------
                    Distance matrix (angstroms):
                    1          2          3          4          5
     1  B    0.000000
     2  N    2.602956   0.000000
     3  N    1.410600   3.150713   0.000000
     4  B    2.747436   1.391169   2.602934   0.000000
     5  H    2.127660   3.604579   1.002458   2.886182   0.000000
     6  H    2.127660   3.604579   1.002458   2.886182   1.684876
     7  H    3.216633   2.236077   2.812910   1.194453   2.660731
     8  H    3.216633   2.236077   2.812910   1.194453   3.252469
     9  H    2.900323   1.005559   3.620134   2.113613   4.264633
    10  H    2.900323   1.005559   3.620134   2.113613   3.917284
    11  H    1.195052   2.834965   2.247912   3.228359   3.158450
    12  H    1.195052   2.834965   2.247912   3.228359   2.541655
                    6          7          8          9         10
     6  H    0.000000
     7  H    3.252469   0.000000
     8  H    2.660731   2.076748   0.000000
     9  H    3.917284   3.150275   2.534021   0.000000
    10  H    4.264633   2.534021   3.150275   1.686757   0.000000
    11  H    2.541655   4.009372   3.426595   2.698933   3.286938
    12  H    3.158450   3.426595   4.009372   3.286938   2.698933
                   11         12
    11  H    0.000000
    12  H    2.086679   0.000000
 Stoichiometry    B2H8N2
 Framework group  C1[X(B2H8N2)]
 Deg. of freedom    30
 Full point group                 C1      NOp   1
 Omega: Change in point group or standard orientation.

 Old FWG=CS   [SG(B2N2),X(H8)]
 New FWG=C01  [X(B2H8N2)]
 RotChk:  IX=1 Diff= 1.13D+00
 Largest Abelian subgroup         C1      NOp   1
 Largest concise Abelian subgroup C1      NOp   1
                         Standard orientation:                         
 ---------------------------------------------------------------------
 Center     Atomic      Atomic             Coordinates (Angstroms)
 Number     Number       Type             X           Y           Z
 ---------------------------------------------------------------------
      1          5           0       -1.019863   -0.924708    0.000000
      2          7           0        1.526216   -0.383539    0.000000
      3          7           0       -1.527738    0.391291    0.000000
      4          5           0        1.022342    0.913173    0.000000
      5          1           0       -1.738077    0.892268    0.842438
      6          1           0       -1.738077    0.892268   -0.842438
      7          1           0        0.850022    1.477799    1.038374
      8          1           0        0.850022    1.477799   -1.038374
      9          1           0        1.754788   -0.881149   -0.843379
     10          1           0        1.754789   -0.881149    0.843379
     11          1           0       -0.867604   -1.487212   -1.043339
     12          1           0       -0.867604   -1.487212    1.043339
 ---------------------------------------------------------------------
 Rotational constants (GHZ):     12.0527541      4.5575227      3.6527387
 Leave Link  202 at Thu Mar  9 18:30:42 2017, MaxMem=  1127874560 cpu:         0.0
 (Enter /share/apps/g09RelE.01/g09/l301.exe)
 Standard basis: 6-311G(d,p) (5D, 7F)
 Ernie: Thresh=  0.10000D-02 Tol=  0.10000D-05 Strict=F.
 There are   124 symmetry adapted cartesian basis functions of A   symmetry.
 There are   120 symmetry adapted basis functions of A   symmetry.
   120 basis functions,   192 primitive gaussians,   124 cartesian basis functions
    16 alpha electrons       16 beta electrons
       nuclear repulsion energy       110.3960841623 Hartrees.
 IExCor= 4639 DFT=T Ex+Corr=wB97XD ExCW=0 ScaHFX=  1.000000
 ScaDFX=  1.000000  1.000000  1.000000  1.000000 ScalE2=  1.000000  1.000000
 IRadAn=      5 IRanWt=     -1 IRanGd=            0 ICorTp=0 IEmpDi=121
  HFx wShort=  0.000000 wLong=  0.200000 cFull=  0.222036 cShort=  0.000000 cLong=  0.777964
  DFx wShort=  0.000000 wLong=  0.200000 cFull=  0.000000 cShort=  0.000000 cLong=  1.000000
 NAtoms=   12 NActive=   12 NUniq=   12 SFac= 1.00D+00 NAtFMM=   60 NAOKFM=F Big=F
 Integral buffers will be    131072 words long.
 Raffenetti 2 integral format.
 Two-electron integral symmetry is turned on.
 R6Disp:  Grimme-D2 Dispersion energy=       -0.0057269801 Hartrees.
 Nuclear repulsion after empirical dispersion term =      110.3903571822 Hartrees.
 Leave Link  301 at Thu Mar  9 18:30:42 2017, MaxMem=  1127874560 cpu:         0.4
 (Enter /share/apps/g09RelE.01/g09/l302.exe)
 NPDir=0 NMtPBC=     1 NCelOv=     1 NCel=       1 NClECP=     1 NCelD=      1
         NCelK=      1 NCelE2=     1 NClLst=     1 CellRange=     0.0.
 One-electron integrals computed using PRISM.
 NBasis=   120 RedAO= T EigKep=  4.58D-03  NBF=   120
 NBsUse=   120 1.00D-06 EigRej= -1.00D+00 NBFU=   120
 Precomputing XC quadrature grid using
 IXCGrd= 4 IRadAn=           5 IRanWt=          -1 IRanGd=           0 AccXCQ= 0.00D+00.
 Generated NRdTot=       0 NPtTot=           0 NUsed=           0 NTot=          32
 NSgBfM=   124   124   124   124   124 MxSgAt=    12 MxSgA2=    12.
 Leave Link  302 at Thu Mar  9 18:30:43 2017, MaxMem=  1127874560 cpu:         1.4
 (Enter /share/apps/g09RelE.01/g09/l303.exe)
 DipDrv:  MaxL=1.
 Leave Link  303 at Thu Mar  9 18:30:43 2017, MaxMem=  1127874560 cpu:         0.2
 (Enter /share/apps/g09RelE.01/g09/l401.exe)
 Initial guess from the checkpoint file:  "AB-AB-NHscan.chk"
 B after Tr=    -0.000000   -0.000000   -0.000000
         Rot=    0.917236   -0.000000   -0.000000    0.398344 Ang=  46.95 deg.
 Guess basis will be translated and rotated to current coordinates.
 JPrj=2 DoOrth=T DoCkMO=T.
 Generating alternative initial guess.
 ExpMin= 9.89D-02 ExpMax= 6.29D+03 ExpMxC= 9.49D+02 IAcc=2 IRadAn=         4 AccDes= 0.00D+00
 Harris functional with IExCor= 4639 and IRadAn=       4 diagonalized for initial guess.
 HarFok:  IExCor= 4639 AccDes= 0.00D+00 IRadAn=         4 IDoV= 1 UseB2=F ITyADJ=14
 ICtDFT=  3500011 ScaDFX=  1.000000  1.000000  1.000000  1.000000
 FoFCou: FMM=F IPFlag=           0 FMFlag=      100000 FMFlg1=           0
         NFxFlg=           0 DoJE=T BraDBF=F KetDBF=T FulRan=T
         wScrn=  0.000000 ICntrl=     500 IOpCl=  0 I1Cent=   200000004 NGrid=           0
         NMat0=    1 NMatS0=      1 NMatT0=    0 NMatD0=    1 NMtDS0=    0 NMtDT0=    0
 Petite list used in FoFCou.
 Harris En= -156.199655245845    
 Leave Link  401 at Thu Mar  9 18:30:44 2017, MaxMem=  1127874560 cpu:         4.3
 (Enter /share/apps/g09RelE.01/g09/l502.exe)
 Closed shell SCF:
 Using DIIS extrapolation, IDIIS=  1040.
 Integral symmetry usage will be decided dynamically.
 Keep R1 ints in memory in canonical form, NReq=53757722.
 IVT=       66362 IEndB=       66362 NGot=  1127874560 MDV=  1075093339
 LenX=  1075093339 LenY=  1075077522
 Requested convergence on RMS density matrix=1.00D-08 within 128 cycles.
 Requested convergence on MAX density matrix=1.00D-06.
 Requested convergence on             energy=1.00D-06.
 No special actions if energy rises.
 FoFCou: FMM=F IPFlag=           0 FMFlag=           0 FMFlg1=           0
         NFxFlg=           0 DoJE=F BraDBF=F KetDBF=F FulRan=T
         wScrn=  0.000000 ICntrl=     600 IOpCl=  0 I1Cent=           0 NGrid=           0
         NMat0=    1 NMatS0=   7260 NMatT0=    0 NMatD0=    1 NMtDS0=    0 NMtDT0=    0
 Symmetry not used in FoFCou.
 Integral accuracy reduced to 1.0D-05 until final iterations.

 Cycle   1  Pass 0  IDiag  1:
 E= -164.070396301610    
 DIIS: error= 2.80D-03 at cycle   1 NSaved=   1.
 NSaved= 1 IEnMin= 1 EnMin= -164.070396301610     IErMin= 1 ErrMin= 2.80D-03
 ErrMax= 2.80D-03  0.00D+00 EMaxC= 1.00D-01 BMatC= 6.30D-04 BMatP= 6.30D-04
 IDIUse=3 WtCom= 9.72D-01 WtEn= 2.80D-02
 Coeff-Com:  0.100D+01
 Coeff-En:   0.100D+01
 Coeff:      0.100D+01
 Gap=     0.691 Goal=   None    Shift=    0.000
 GapD=    0.691 DampG=2.000 DampE=1.000 DampFc=2.0000 IDamp=-1.
 RMSDP=2.22D-04 MaxDP=4.04D-03              OVMax= 1.20D-02

 Cycle   2  Pass 0  IDiag  1:
 E= -164.071459961308     Delta-E=       -0.001063659699 Rises=F Damp=F
 DIIS: error= 8.04D-04 at cycle   2 NSaved=   2.
 NSaved= 2 IEnMin= 2 EnMin= -164.071459961308     IErMin= 2 ErrMin= 8.04D-04
 ErrMax= 8.04D-04  0.00D+00 EMaxC= 1.00D-01 BMatC= 3.78D-05 BMatP= 6.30D-04
 IDIUse=3 WtCom= 9.92D-01 WtEn= 8.04D-03
 Coeff-Com: -0.103D+00 0.110D+01
 Coeff-En:   0.000D+00 0.100D+01
 Coeff:     -0.102D+00 0.110D+01
 Gap=     0.422 Goal=   None    Shift=    0.000
 RMSDP=7.12D-05 MaxDP=1.22D-03 DE=-1.06D-03 OVMax= 4.88D-03

 Cycle   3  Pass 0  IDiag  1:
 E= -164.071534461257     Delta-E=       -0.000074499948 Rises=F Damp=F
 DIIS: error= 4.11D-04 at cycle   3 NSaved=   3.
 NSaved= 3 IEnMin= 3 EnMin= -164.071534461257     IErMin= 3 ErrMin= 4.11D-04
 ErrMax= 4.11D-04  0.00D+00 EMaxC= 1.00D-01 BMatC= 1.97D-05 BMatP= 3.78D-05
 IDIUse=3 WtCom= 9.96D-01 WtEn= 4.11D-03
 Coeff-Com: -0.926D-01 0.484D+00 0.609D+00
 Coeff-En:   0.000D+00 0.000D+00 0.100D+01
 Coeff:     -0.922D-01 0.482D+00 0.610D+00
 Gap=     0.423 Goal=   None    Shift=    0.000
 RMSDP=2.34D-05 MaxDP=8.78D-04 DE=-7.45D-05 OVMax= 1.53D-03

 Cycle   4  Pass 0  IDiag  1:
 E= -164.071552390021     Delta-E=       -0.000017928765 Rises=F Damp=F
 DIIS: error= 1.39D-04 at cycle   4 NSaved=   4.
 NSaved= 4 IEnMin= 4 EnMin= -164.071552390021     IErMin= 4 ErrMin= 1.39D-04
 ErrMax= 1.39D-04  0.00D+00 EMaxC= 1.00D-01 BMatC= 1.09D-06 BMatP= 1.97D-05
 IDIUse=3 WtCom= 9.99D-01 WtEn= 1.39D-03
 Coeff-Com: -0.619D-02-0.396D-01 0.139D+00 0.907D+00
 Coeff-En:   0.000D+00 0.000D+00 0.000D+00 0.100D+01
 Coeff:     -0.618D-02-0.396D-01 0.139D+00 0.907D+00
 Gap=     0.423 Goal=   None    Shift=    0.000
 RMSDP=1.14D-05 MaxDP=2.27D-04 DE=-1.79D-05 OVMax= 8.91D-04

 Cycle   5  Pass 0  IDiag  1:
 E= -164.071554431932     Delta-E=       -0.000002041910 Rises=F Damp=F
 DIIS: error= 3.71D-05 at cycle   5 NSaved=   5.
 NSaved= 5 IEnMin= 5 EnMin= -164.071554431932     IErMin= 5 ErrMin= 3.71D-05
 ErrMax= 3.71D-05  0.00D+00 EMaxC= 1.00D-01 BMatC= 1.08D-07 BMatP= 1.09D-06
 IDIUse=1 WtCom= 1.00D+00 WtEn= 0.00D+00
 Coeff-Com:  0.803D-02-0.604D-01-0.365D-01 0.217D+00 0.872D+00
 Coeff:      0.803D-02-0.604D-01-0.365D-01 0.217D+00 0.872D+00
 Gap=     0.423 Goal=   None    Shift=    0.000
 RMSDP=4.36D-06 MaxDP=9.03D-05 DE=-2.04D-06 OVMax= 3.23D-04

 Initial convergence to 1.0D-05 achieved.  Increase integral accuracy.
 Cycle   6  Pass 1  IDiag  1:
 E= -164.071468987729     Delta-E=        0.000085444203 Rises=F Damp=F
 DIIS: error= 4.00D-05 at cycle   1 NSaved=   1.
 NSaved= 1 IEnMin= 1 EnMin= -164.071468987729     IErMin= 1 ErrMin= 4.00D-05
 ErrMax= 4.00D-05  0.00D+00 EMaxC= 1.00D-01 BMatC= 1.84D-07 BMatP= 1.84D-07
 IDIUse=1 WtCom= 1.00D+00 WtEn= 0.00D+00
 Coeff-Com:  0.100D+01
 Coeff:      0.100D+01
 Gap=     0.423 Goal=   None    Shift=    0.000
 RMSDP=4.36D-06 MaxDP=9.03D-05 DE= 8.54D-05 OVMax= 1.27D-04

 Cycle   7  Pass 1  IDiag  1:
 E= -164.071469189761     Delta-E=       -0.000000202033 Rises=F Damp=F
 DIIS: error= 7.21D-06 at cycle   2 NSaved=   2.
 NSaved= 2 IEnMin= 2 EnMin= -164.071469189761     IErMin= 2 ErrMin= 7.21D-06
 ErrMax= 7.21D-06  0.00D+00 EMaxC= 1.00D-01 BMatC= 7.45D-09 BMatP= 1.84D-07
 IDIUse=1 WtCom= 1.00D+00 WtEn= 0.00D+00
 Coeff-Com: -0.317D-01 0.103D+01
 Coeff:     -0.317D-01 0.103D+01
 Gap=     0.423 Goal=   None    Shift=    0.000
 RMSDP=9.22D-07 MaxDP=2.50D-05 DE=-2.02D-07 OVMax= 4.99D-05

 Cycle   8  Pass 1  IDiag  1:
 E= -164.071469199181     Delta-E=       -0.000000009420 Rises=F Damp=F
 DIIS: error= 5.43D-06 at cycle   3 NSaved=   3.
 NSaved= 3 IEnMin= 3 EnMin= -164.071469199181     IErMin= 3 ErrMin= 5.43D-06
 ErrMax= 5.43D-06  0.00D+00 EMaxC= 1.00D-01 BMatC= 3.22D-09 BMatP= 7.45D-09
 IDIUse=1 WtCom= 1.00D+00 WtEn= 0.00D+00
 Coeff-Com: -0.503D-01 0.394D+00 0.656D+00
 Coeff:     -0.503D-01 0.394D+00 0.656D+00
 Gap=     0.423 Goal=   None    Shift=    0.000
 RMSDP=3.49D-07 MaxDP=1.25D-05 DE=-9.42D-09 OVMax= 1.62D-05

 Cycle   9  Pass 1  IDiag  1:
 E= -164.071469201996     Delta-E=       -0.000000002815 Rises=F Damp=F
 DIIS: error= 1.53D-06 at cycle   4 NSaved=   4.
 NSaved= 4 IEnMin= 4 EnMin= -164.071469201996     IErMin= 4 ErrMin= 1.53D-06
 ErrMax= 1.53D-06  0.00D+00 EMaxC= 1.00D-01 BMatC= 2.67D-10 BMatP= 3.22D-09
 IDIUse=1 WtCom= 1.00D+00 WtEn= 0.00D+00
 Coeff-Com: -0.116D-01 0.103D-01 0.205D+00 0.796D+00
 Coeff:     -0.116D-01 0.103D-01 0.205D+00 0.796D+00
 Gap=     0.423 Goal=   None    Shift=    0.000
 RMSDP=1.33D-07 MaxDP=3.18D-06 DE=-2.82D-09 OVMax= 8.78D-06

 Cycle  10  Pass 1  IDiag  1:
 E= -164.071469202341     Delta-E=       -0.000000000345 Rises=F Damp=F
 DIIS: error= 5.94D-07 at cycle   5 NSaved=   5.
 NSaved= 5 IEnMin= 5 EnMin= -164.071469202341     IErMin= 5 ErrMin= 5.94D-07
 ErrMax= 5.94D-07  0.00D+00 EMaxC= 1.00D-01 BMatC= 2.34D-11 BMatP= 2.67D-10
 IDIUse=1 WtCom= 1.00D+00 WtEn= 0.00D+00
 Coeff-Com:  0.261D-02-0.390D-01-0.328D-01 0.180D+00 0.889D+00
 Coeff:      0.261D-02-0.390D-01-0.328D-01 0.180D+00 0.889D+00
 Gap=     0.423 Goal=   None    Shift=    0.000
 RMSDP=5.98D-08 MaxDP=1.01D-06 DE=-3.45D-10 OVMax= 4.36D-06

 Cycle  11  Pass 1  IDiag  1:
 E= -164.071469202389     Delta-E=       -0.000000000048 Rises=F Damp=F
 DIIS: error= 1.68D-07 at cycle   6 NSaved=   6.
 NSaved= 6 IEnMin= 6 EnMin= -164.071469202389     IErMin= 6 ErrMin= 1.68D-07
 ErrMax= 1.68D-07  0.00D+00 EMaxC= 1.00D-01 BMatC= 2.81D-12 BMatP= 2.34D-11
 IDIUse=1 WtCom= 1.00D+00 WtEn= 0.00D+00
 Coeff-Com:  0.185D-02-0.123D-01-0.339D-01-0.270D-01 0.246D+00 0.826D+00
 Coeff:      0.185D-02-0.123D-01-0.339D-01-0.270D-01 0.246D+00 0.826D+00
 Gap=     0.423 Goal=   None    Shift=    0.000
 RMSDP=2.18D-08 MaxDP=3.93D-07 DE=-4.81D-11 OVMax= 1.43D-06

 Cycle  12  Pass 1  IDiag  1:
 E= -164.071469202394     Delta-E=       -0.000000000004 Rises=F Damp=F
 DIIS: error= 7.09D-08 at cycle   7 NSaved=   7.
 NSaved= 7 IEnMin= 7 EnMin= -164.071469202394     IErMin= 7 ErrMin= 7.09D-08
 ErrMax= 7.09D-08  0.00D+00 EMaxC= 1.00D-01 BMatC= 4.19D-13 BMatP= 2.81D-12
 IDIUse=1 WtCom= 1.00D+00 WtEn= 0.00D+00
 Coeff-Com:  0.595D-03-0.206D-02-0.119D-01-0.232D-01 0.262D-01 0.309D+00
 Coeff-Com:  0.701D+00
 Coeff:      0.595D-03-0.206D-02-0.119D-01-0.232D-01 0.262D-01 0.309D+00
 Coeff:      0.701D+00
 Gap=     0.423 Goal=   None    Shift=    0.000
 RMSDP=6.00D-09 MaxDP=1.18D-07 DE=-4.04D-12 OVMax= 4.88D-07

 SCF Done:  E(RwB97XD) =  -164.071469202     A.U. after   12 cycles
            NFock= 12  Conv=0.60D-08     -V/T= 2.0041
 KE= 1.634056465248D+02 PE=-6.021394416188D+02 EE= 1.642719687094D+02
 Leave Link  502 at Thu Mar  9 18:31:09 2017, MaxMem=  1127874560 cpu:        95.8
 (Enter /share/apps/g09RelE.01/g09/l701.exe)
 Compute integral first derivatives.
 ... and contract with generalized density number  0.
 R6Disp: Adding Grimme-D2 dispersion energy 1st derivatives to the gradient.
 Leave Link  701 at Thu Mar  9 18:31:09 2017, MaxMem=  1127874560 cpu:         0.9
 (Enter /share/apps/g09RelE.01/g09/l702.exe)
 L702 exits ... SP integral derivatives will be done elsewhere.
 Leave Link  702 at Thu Mar  9 18:31:09 2017, MaxMem=  1127874560 cpu:         0.2
 (Enter /share/apps/g09RelE.01/g09/l703.exe)
 Compute integral first derivatives, UseDBF=F ICtDFT=           0.
[...]
 ! D15   D(11,1,3,6)            -2.4309         -DE/DX =   -0.0002              !
 ! D16   D(12,1,3,4)            93.4509         -DE/DX =   -0.0001              !
 ! D17   D(12,1,3,5)             2.4309         -DE/DX =    0.0002              !
 ! D18   D(12,1,3,6)          -175.5291         -DE/DX =   -0.0004              !
 ! D19   D(1,2,4,3)              0.0            -DE/DX =    0.0                 !
 ! D20   D(1,2,4,7)             92.6811         -DE/DX =   -0.0002              !
 ! D21   D(1,2,4,8)            -92.6811         -DE/DX =    0.0002              !
 ! D22   D(9,2,4,3)             92.0051         -DE/DX =   -0.0002              !
 ! D23   D(9,2,4,7)           -175.3138         -DE/DX =   -0.0003              !
 ! D24   D(9,2,4,8)             -0.6759         -DE/DX =    0.0                 !
 ! D25   D(10,2,4,3)           -92.0051         -DE/DX =    0.0002              !
 ! D26   D(10,2,4,7)             0.6759         -DE/DX =    0.0                 !
 ! D27   D(10,2,4,8)           175.3138         -DE/DX =    0.0003              !
 ! D28   D(1,3,4,2)              0.0            -DE/DX =    0.0                 !
 ! D29   D(1,3,4,7)           -119.3765         -DE/DX =    0.0001              !
 ! D30   D(1,3,4,8)            119.3765         -DE/DX =   -0.0001              !
 ! D31   D(5,3,4,2)            122.4245         -DE/DX =    0.0001              !
 ! D32   D(5,3,4,7)              3.048          -DE/DX =    0.0002              !
 ! D33   D(5,3,4,8)           -118.199          -DE/DX =    0.0                 !
 ! D34   D(6,3,4,2)           -122.4245         -DE/DX =   -0.0001              !
 ! D35   D(6,3,4,7)            118.199          -DE/DX =    0.0                 !
 ! D36   D(6,3,4,8)             -3.048          -DE/DX =   -0.0002              !
 ! D37   D(1,3,5,7)             81.2136         -DE/DX =    0.0003              !
 ! D38   D(4,3,5,7)             -1.3652         -DE/DX =   -0.0001              !
 ! D39   D(6,3,5,7)           -100.6639         -DE/DX =    0.0008              !
 ! D40   D(1,3,6,8)            -81.2136         -DE/DX =   -0.0003              !
 ! D41   D(4,3,6,8)              1.3652         -DE/DX =    0.0001              !
 ! D42   D(5,3,6,8)            100.6639         -DE/DX =   -0.0008              !
 ! D43   D(2,4,7,5)           -100.7156         -DE/DX =   -0.0003              !
 ! D44   D(3,4,7,5)             -1.1434         -DE/DX =   -0.0001              !
 ! D45   D(8,4,7,5)             84.742          -DE/DX =   -0.0006              !
 ! D46   D(2,4,8,6)            100.7156         -DE/DX =    0.0003              !
 ! D47   D(3,4,8,6)              1.1434         -DE/DX =    0.0001              !
 ! D48   D(7,4,8,6)            -84.742          -DE/DX =    0.0006              !
 ! D49   D(3,5,7,4)              2.9594         -DE/DX =    0.0002              !
 ! D50   D(3,6,8,4)             -2.9594         -DE/DX =   -0.0002              !
 --------------------------------------------------------------------------------
 Lowest energy point so far.  Saving SCF results.
 GradGradGradGradGradGradGradGradGradGradGradGradGradGradGradGradGradGrad

 Summary of Optimized Potential Surface Scan
                           1         2
     Eigenvalues --  -164.07026-164.07166
           R1           2.60295   2.60296
           R2           1.40195   1.40095
           R3           1.19496   1.19524
           R4           1.19496   1.19524
           R5           1.40236   1.39830
           R6           1.00555   1.00580
           R7           1.00555   1.00580
           R8           2.50294   2.60294
           R9           1.00581   1.00578
           R10          1.00581   1.00578
           R11          1.19571   1.19531
           R12          1.19571   1.19531
           R13          2.59866   2.66684
           R14          2.59866   2.66684
           A1          97.08282  99.40025
           A2          89.17214  88.44557
           A3          89.17214  88.44557
           A4         119.04467 118.96041
           A5         119.04467 118.96041
           A6         121.62838 121.70482
           A7          78.77755  80.58092
           A8          97.85186  96.78344
           A9          97.85186  96.78344
           A10        122.99659 123.01735
           A11        122.99659 123.01735
           A12        113.88460 113.85741
           A13         82.55758  80.54046
           A14        122.95970 122.89638
           A15        122.95970 122.89638
           A16         96.80746  95.96993
           A17         96.80746  95.96993
           A18        113.78606 114.17918
           A19        101.58205  99.47837
           A20        118.93224 119.34854
           A21        118.93224 119.34854
           A22         88.48190  87.67919
           A23         88.48190  87.67918
           A24        121.43466 121.08023
           A25         87.49090  88.16726
           A26         87.49090  88.16726
           A27         87.14456  88.11798
           A28         87.14456  88.11798
           D1           0.00000   0.00000
           D2        -122.21499-122.44575
           D3         122.21499 122.44576
           D4         119.17510 119.10975
           D5          -3.03989  -3.33601
           D6        -118.60991-118.44450
           D7        -119.17510-119.10975
           D8         118.60991 118.44450
           D9           3.03989   3.33601
           D10          0.00000   0.00000
           D11        -93.31175 -91.02000
           D12         93.31175  91.02000
           D13        -93.00063 -93.45088
           D14        173.68762 175.52911
           D15          0.31112  -2.43088
           D16         93.00063  93.45089
           D17         -0.31112   2.43088
           D18       -173.68762-175.52911
           D19          0.00000   0.00000
           D20         94.72572  92.68106
           D21        -94.72572 -92.68105
           D22         92.13341  92.00512
           D23       -173.14087-175.31382
           D24         -2.59231  -0.67593
           D25        -92.13341 -92.00512
           D26          2.59231   0.67593
           D27        173.14087 175.31382
           D28          0.00000   0.00000
           D29       -119.24678-119.37651
           D30        119.24678 119.37651
           D31        122.47780 122.42447
           D32          3.23102   3.04796
           D33       -118.27542-118.19902
           D34       -122.47780-122.42447
           D35        118.27542 118.19902
           D36         -3.23102  -3.04796
           D37         84.03549  81.21365
           D38         -1.48696  -1.36520
           D39       -102.03569-100.66392
           D40        -84.03549 -81.21364
           D41          1.48696   1.36520
           D42        102.03569 100.66392
           D43       -103.64849-100.71558
           D44         -1.24273  -1.14343
           D45         86.04849  84.74204
           D46        103.64849 100.71558
           D47          1.24273   1.14343
           D48        -86.04849 -84.74205
           D49          3.09566   2.95939
           D50         -3.09566  -2.95939
 Largest change from initial coordinates is atom   10       1.369 Angstoms.
 Leave Link  103 at Thu Mar  9 18:31:52 2017, MaxMem=  1127874560 cpu:         0.1
 (Enter /share/apps/g09RelE.01/g09/l202.exe)
                          Input orientation:                          
 ---------------------------------------------------------------------
 Center     Atomic      Atomic             Coordinates (Angstroms)
 Number     Number       Type             X           Y           Z
 ---------------------------------------------------------------------
      1          5           0       -0.023750   -1.374962   -0.000000
      2          7           0        1.322819    0.852621   -0.000000
      3          7           0       -1.324945   -0.855769   -0.000000
      4          5           0        0.023919    1.370404   -0.000000
      5          1           0       -1.837879   -0.667288    0.844373
      6          1           0       -1.837879   -0.667288   -0.844373
      7          1           0       -0.502238    1.632613    1.040761
      8          1           0       -0.502238    1.632613   -1.040761
      9          1           0        1.842842    0.677090   -0.842856
     10          1           0        1.842842    0.677090    0.842856
     11          1           0        0.490453   -1.647910   -1.043887
     12          1           0        0.490453   -1.647910    1.043887
 ---------------------------------------------------------------------
                    Distance matrix (angstroms):
                    1          2          3          4          5
     1  B    0.000000
     2  N    2.602955   0.000000
     3  N    1.400954   3.151072   0.000000
     4  B    2.745780   1.398299   2.602937   0.000000
     5  H    2.122459   3.607368   1.005779   2.886424   0.000000
     6  H    2.122459   3.607368   1.005779   2.886424   1.688746
     7  H    3.218329   2.241072   2.819942   1.195315   2.666842
     8  H    3.218329   2.241072   2.819942   1.195315   3.259940
     9  H    2.899222   1.005804   3.618693   2.121220   4.266357
    10  H    2.899222   1.005804   3.618693   2.121220   3.918554
    11  H    1.195243   2.834641   2.238942   3.227627   3.154089
    12  H    1.195243   2.834641   2.238942   3.227627   2.534277
                    6          7          8          9         10
     6  H    0.000000
     7  H    3.259940   0.000000
     8  H    2.666842   2.081522   0.000000
     9  H    3.918554   3.156016   2.539998   0.000000
    10  H    4.266357   2.539998   3.156016   1.685711   0.000000
    11  H    2.534277   4.011611   3.427430   2.697220   3.285480
    12  H    3.154089   3.427430   4.011611   3.285480   2.697220
                   11         12
    11  H    0.000000
    12  H    2.087774   0.000000
 Stoichiometry    B2H8N2
 Framework group  C1[X(B2H8N2)]
 Deg. of freedom    30
 Full point group                 C1      NOp   1
 RotChk:  IX=1 Diff= 3.93D-16
 Largest Abelian subgroup         C1      NOp   1
 Largest concise Abelian subgroup C1      NOp   1
                         Standard orientation:                         
 ---------------------------------------------------------------------
 Center     Atomic      Atomic             Coordinates (Angstroms)
 Number     Number       Type             X           Y           Z
 ---------------------------------------------------------------------
      1          5           0       -1.020612   -0.919023    0.000000
      2          7           0        1.527301   -0.386563    0.000000
      3          7           0       -1.527322    0.387085    0.000000
      4          5           0        1.021123    0.916904    0.000000
      5          1           0       -1.738914    0.890925    0.844373
      6          1           0       -1.738914    0.890925   -0.844373
      7          1           0        0.854479    1.480663    1.040761
      8          1           0        0.854479    1.480663   -1.040761
      9          1           0        1.753202   -0.886767   -0.842856
     10          1           0        1.753202   -0.886767    0.842856
     11          1           0       -0.869974   -1.481352   -1.043887
     12          1           0       -0.869974   -1.481352    1.043887
 ---------------------------------------------------------------------
 Rotational constants (GHZ):     12.0638870      4.5553488      3.6532667
 Leave Link  202 at Thu Mar  9 18:31:52 2017, MaxMem=  1127874560 cpu:         0.0
 (Enter /share/apps/g09RelE.01/g09/l601.exe)
 Copying SCF densities to generalized density rwf, IOpCl= 0 IROHF=0.

 **********************************************************************

            Population analysis using the SCF density.

 **********************************************************************

 Orbital symmetries:
       Occupied  (A) (A) (A) (A) (A) (A) (A) (A) (A) (A) (A) (A)
                 (A) (A) (A) (A)
       Virtual   (A) (A) (A) (A) (A) (A) (A) (A) (A) (A) (A) (A)
                 (A) (A) (A) (A) (A) (A) (A) (A) (A) (A) (A) (A)
                 (A) (A) (A) (A) (A) (A) (A) (A) (A) (A) (A) (A)
                 (A) (A) (A) (A) (A) (A) (A) (A) (A) (A) (A) (A)
                 (A) (A) (A) (A) (A) (A) (A) (A) (A) (A) (A) (A)
                 (A) (A) (A) (A) (A) (A) (A) (A) (A) (A) (A) (A)
                 (A) (A) (A) (A) (A) (A) (A) (A) (A) (A) (A) (A)
                 (A) (A) (A) (A) (A) (A) (A) (A) (A) (A) (A) (A)
                 (A) (A) (A) (A) (A) (A) (A) (A)
 The electronic state is 1-A.
 Alpha  occ. eigenvalues --  -14.42081 -14.41977  -6.83374  -6.83355  -0.96832
 Alpha  occ. eigenvalues --   -0.95931  -0.61766  -0.60905  -0.60129  -0.59180
 Alpha  occ. eigenvalues --   -0.48076  -0.47646  -0.41118  -0.40099  -0.39910
 Alpha  occ. eigenvalues --   -0.34220
 Alpha virt. eigenvalues --    0.08100   0.10827   0.13670   0.14390   0.15275
 Alpha virt. eigenvalues --    0.19504   0.20560   0.20713   0.23591   0.24305
 Alpha virt. eigenvalues --    0.27503   0.28486   0.34302   0.34745   0.38542
 Alpha virt. eigenvalues --    0.38545   0.45575   0.47188   0.50139   0.52097
 Alpha virt. eigenvalues --    0.55720   0.55783   0.57125   0.60163   0.64206
 Alpha virt. eigenvalues --    0.66104   0.69685   0.69919   0.78327   0.78688
 Alpha virt. eigenvalues --    0.81925   0.84561   0.87510   0.91341   0.94736
 Alpha virt. eigenvalues --    0.94802   0.97202   0.99484   1.01753   1.10086
 Alpha virt. eigenvalues --    1.20605   1.24009   1.24710   1.27400   1.30478
 Alpha virt. eigenvalues --    1.31638   1.38530   1.46145   1.64811   1.65723
 Alpha virt. eigenvalues --    1.68544   1.69823   1.70938   1.72608   1.75723
 Alpha virt. eigenvalues --    1.78533   1.80935   1.81178   1.88256   1.88743
 Alpha virt. eigenvalues --    2.01019   2.01244   2.01680   2.06734   2.07127
 Alpha virt. eigenvalues --    2.07682   2.12837   2.13535   2.20307   2.21156
 Alpha virt. eigenvalues --    2.26341   2.32175   2.46619   2.50146   2.54525
 Alpha virt. eigenvalues --    2.55351   2.56026   2.57967   2.59178   2.60172
 Alpha virt. eigenvalues --    2.66368   2.75117   2.75941   2.80632   2.84206
 Alpha virt. eigenvalues --    2.92116   2.92671   2.95296   2.95751   3.00791
 Alpha virt. eigenvalues --    3.12126   3.22528   3.34541   3.36077   3.95234
 Alpha virt. eigenvalues --    3.98678   4.75785   4.81026   4.86575   4.87194
 Alpha virt. eigenvalues --   14.76056  14.80947  35.73380  35.74756
          Condensed to atoms (all electrons):
               1          2          3          4          5          6
     1  B    3.586809   0.019399   0.485487   0.004161  -0.034947  -0.034947
     2  N    0.019399   6.280328  -0.019012   0.485376   0.000067   0.000067
     3  N    0.485487  -0.019012   6.281620   0.019277   0.376913   0.376913
     4  B    0.004161   0.485376   0.019277   3.586832  -0.001606  -0.001606
     5  H   -0.034947   0.000067   0.376913  -0.001606   0.468556  -0.035212
     6  H   -0.034947   0.000067   0.376913  -0.001606  -0.035212   0.468556
     7  H   -0.004143  -0.023650  -0.005316   0.434600  -0.000468   0.000320
     8  H   -0.004143  -0.023650  -0.005316   0.434600   0.000320  -0.000468
     9  H   -0.001514   0.376792   0.000064  -0.034752   0.000006  -0.000003
    10  H   -0.001514   0.376792   0.000064  -0.034752  -0.000003   0.000006
    11  H    0.434435  -0.005197  -0.023970  -0.004113   0.006650  -0.010831
    12  H    0.434435  -0.005197  -0.023970  -0.004113  -0.010831   0.006650
               7          8          9         10         11         12
     1  B   -0.004143  -0.004143  -0.001514  -0.001514   0.434435   0.434435
     2  N   -0.023650  -0.023650   0.376792   0.376792  -0.005197  -0.005197
     3  N   -0.005316  -0.005316   0.000064   0.000064  -0.023970  -0.023970
     4  B    0.434600   0.434600  -0.034752  -0.034752  -0.004113  -0.004113
     5  H   -0.000468   0.000320   0.000006  -0.000003   0.006650  -0.010831
     6  H    0.000320  -0.000468  -0.000003   0.000006  -0.010831   0.006650
     7  H    0.694703  -0.034699   0.006657  -0.010911  -0.000165   0.000711
     8  H   -0.034699   0.694703  -0.010911   0.006657   0.000711  -0.000165
     9  H    0.006657  -0.010911   0.468645  -0.035441  -0.000430   0.000308
    10  H   -0.010911   0.006657  -0.035441   0.468645   0.000308  -0.000430
    11  H   -0.000165   0.000711  -0.000430   0.000308   0.693601  -0.033644
    12  H    0.000711  -0.000165   0.000308  -0.000430  -0.033644   0.693601
 Mulliken charges:
               1
     1  B    0.116484
     2  N   -0.462114
     3  N   -0.462755
     4  B    0.116098
     5  H    0.230556
     6  H    0.230556
     7  H   -0.057638
     8  H   -0.057638
     9  H    0.230580
    10  H    0.230580
    11  H   -0.057355
    12  H   -0.057355
 Sum of Mulliken charges =  -0.00000
 Mulliken charges with hydrogens summed into heavy atoms:
               1
     1  B    0.001774
     2  N   -0.000954
     3  N   -0.001642
     4  B    0.000822
 Electronic spatial extent (au):  <R**2>=            373.9440
 Charge=             -0.0000 electrons
 Dipole moment (field-independent basis, Debye):
    X=              0.0718    Y=              0.0067    Z=              0.0000  Tot=              0.0722
 Quadrupole moment (field-independent basis, Debye-Ang):
   XX=            -25.6152   YY=            -28.7527   ZZ=            -26.4172
   XY=             -6.0926   XZ=              0.0000   YZ=              0.0000
 Traceless Quadrupole moment (field-independent basis, Debye-Ang):
   XX=              1.3132   YY=             -1.8243   ZZ=              0.5111
   XY=             -6.0926   XZ=              0.0000   YZ=              0.0000
 Octapole moment (field-independent basis, Debye-Ang**2):
  XXX=              0.6211  YYY=              0.0743  ZZZ=              0.0000  XYY=              0.0573
  XXY=             -0.0850  XXZ=              0.0000  XZZ=              0.0311  YZZ=              0.0093
  YYZ=              0.0000  XYZ=             -0.0000
 Hexadecapole moment (field-independent basis, Debye-Ang**3):
 XXXX=           -315.1769 YYYY=           -171.6580 ZZZZ=            -65.9948 XXXY=            -31.9590
 XXXZ=              0.0000 YYYX=            -26.6797 YYYZ=             -0.0000 ZZZX=              0.0000
 ZZZY=             -0.0000 XXYY=            -68.7222 XXZZ=            -53.2823 YYZZ=            -38.6748
 XXYZ=             -0.0000 YYXZ=              0.0000 ZZXY=            -15.6517
 N-N= 1.103778425377D+02 E-N=-6.021080279564D+02  KE= 1.633961721553D+02
 No NMR shielding tensors so no spin-rotation constants.
 Leave Link  601 at Thu Mar  9 18:31:52 2017, MaxMem=  1127874560 cpu:         0.8
 (Enter /share/apps/g09RelE.01/g09/l9999.exe)
 1\1\GINC-COMPUTE-0-9\Scan\RwB97XD\6-311G(d,p)\B2H8N2\BERTA\09-Mar-2017
 \0\\#P RwB97XD/6-311G(d,p)int(grid=ultrafine) opt(modred,loose)\\AB2-m
 ult-scan10_2.gjf\\0,1\B,-0.0237500014,-1.3749618093,-0.0000000009\N,1.
 3228189288,0.8526214435,-0.0000000009\N,-1.3249453907,-0.8557686333,-0
 .0000000009\B,0.0239185875,1.3704041896,-0.0000000009\H,-1.8378793704,
 -0.667287639,0.8443731634\H,-1.8378793629,-0.6672876307,-0.8443731658\
 H,-0.5022383032,1.6326127041,1.0407610339\H,-0.502238299,1.6326126738,
 -1.040761038\H,1.8428422833,0.6770904481,-0.8428556675\H,1.8428423095,
 0.6770904703,0.8428556565\H,0.4904533194,-1.6479100873,-1.0438868805\H
 ,0.490453299,-1.6479101298,1.0438868776\\Version=ES64L-G09RevE.01\Stat
 e=1-A\HF=-164.0702585,-164.0716613\RMSD=4.250e-09,4.525e-09\PG=C01 [X(
 B2H8N2)]\\@


 When cryptography is outlawed, bayl bhgynjf jvyy unir cevinpl.
 Job cpu time:       0 days  0 hours  6 minutes  4.6 seconds.
 File lengths (MBytes):  RWF=     10 Int=      0 D2E=      0 Chk=      3 Scr=      1
 Normal termination of Gaussian 09 at Thu Mar  9 18:31:52 2017.
