compute-0-6.local
 Entering Gaussian System, Link 0=g09
 Initial command:
 /share/apps/g09RelD.01/g09/l1.exe "/state/partition1/berta/Gau-402.inp" -scrdir="/state/partition1/berta/"
 Entering Link 1 = /share/apps/g09RelD.01/g09/l1.exe PID=       403.
  
 Copyright (c) 1988,1990,1992,1993,1995,1998,2003,2009,2013,
            Gaussian, Inc.  All Rights Reserved.
  
 This is part of the Gaussian(R) 09 program.  It is based on
 the Gaussian(R) 03 system (copyright 2003, Gaussian, Inc.),
 the Gaussian(R) 98 system (copyright 1998, Gaussian, Inc.),
 the Gaussian(R) 94 system (copyright 1995, Gaussian, Inc.),
 the Gaussian 92(TM) system (copyright 1992, Gaussian, Inc.),
 the Gaussian 90(TM) system (copyright 1990, Gaussian, Inc.),
 the Gaussian 88(TM) system (copyright 1988, Gaussian, Inc.),
 the Gaussian 86(TM) system (copyright 1986, Carnegie Mellon
 University), and the Gaussian 82(TM) system (copyright 1983,
 Carnegie Mellon University). Gaussian is a federally registered
 trademark of Gaussian, Inc.
  
 This software contains proprietary and confidential information,
 including trade secrets, belonging to Gaussian, Inc.
  
 This software is provided under written license and may be
 used, copied, transmitted, or stored only in accord with that
 written license.
  
 The following legend is applicable only to US Government
 contracts under FAR:
  
                    RESTRICTED RIGHTS LEGEND
  
 Use, reproduction and disclosure by the US Government is
 subject to restrictions as set forth in subparagraphs (a)
 and (c) of the Commercial Computer Software - Restricted
 Rights clause in FAR 52.227-19.
  
 Gaussian, Inc.
 340 Quinnipiac St., Bldg. 40, Wallingford CT 06492
  
  
 ---------------------------------------------------------------
 Warning -- This program may not be used in any manner that
 competes with the business of Gaussian, Inc. or will provide
 assistance to any competitor of Gaussian, Inc.  The licensee
 of this program is prohibited from giving any competitor of
 Gaussian, Inc. access to this program.  By using this program,
 the user acknowledges that Gaussian, Inc. is engaged in the
 business of creating and licensing software in the field of
 computational chemistry and represents and warrants to the
 licensee that it is not a competitor of Gaussian, Inc. and that
 it will not use this program in any manner prohibited above.
 ---------------------------------------------------------------
  

 Cite this work as:
 Gaussian 09, Revision D.01,
 M. J. Frisch, G. W. Trucks, H. B. Schlegel, G. E. Scuseria, 
 M. A. Robb, J. R. Cheeseman, G. Scalmani, V. Barone, B. Mennucci, 
 G. A. Petersson, H. Nakatsuji, M. Caricato, X. Li, H. P. Hratchian, 
 A. F. Izmaylov, J. Bloino, G. Zheng, J. L. Sonnenberg, M. Hada, 
 M. Ehara, K. Toyota, R. Fukuda, J. Hasegawa, M. Ishida, T. Nakajima, 
 Y. Honda, O. Kitao, H. Nakai, T. Vreven, J. A. Montgomery, Jr., 
 J. E. Peralta, F. Ogliaro, M. Bearpark, J. J. Heyd, E. Brothers, 
 K. N. Kudin, V. N. Staroverov, T. Keith, R. Kobayashi, J. Normand, 
 K. Raghavachari, A. Rendell, J. C. Burant, S. S. Iyengar, J. Tomasi, 
 M. Cossi, N. Rega, J. M. Millam, M. Klene, J. E. Knox, J. B. Cross, 
 V. Bakken, C. Adamo, J. Jaramillo, R. Gomperts, R. E. Stratmann, 
 O. Yazyev, A. J. Austin, R. Cammi, C. Pomelli, J. W. Ochterski, 
 R. L. Martin, K. Morokuma, V. G. Zakrzewski, G. A. Voth, 
 P. Salvador, J. J. Dannenberg, S. Dapprich, A. D. Daniels, 
 O. Farkas, J. B. Foresman, J. V. Ortiz, J. Cioslowski, 
 and D. J. Fox, Gaussian, Inc., Wallingford CT, 2013.
 
 ******************************************
 Gaussian 09:  AS64L-G09RevD.01 24-Apr-2013
                 9-Mar-2017 
 ******************************************
 %chk=AB-AB-NHscan.chk
 %nproc=4
 Will use up to    4 processors via shared memory.
 %mem=4298MB
 -----------------------------------------------------------
 #P RwB97XD/6-311G(d,p)int(grid=ultrafine) opt(modred,loose)
 -----------------------------------------------------------
 1/7=-1,14=-1,18=120,19=15,26=4,38=1/1,3;
 2/9=110,12=2,17=6,18=5,40=1/2;
 3/5=4,6=6,7=101,11=2,16=1,25=1,30=1,71=1,74=-58,75=-5,116=1/1,2,3;
 4//1;
 5/5=2,38=5/2;
 6/7=2,8=2,9=2,10=2,28=1/1;
 7//1,2,3,16;
 1/7=-1,14=-1,18=20,19=15,26=4/3(2);
 2/9=110/2;
 99//99;
 2/9=110/2;
 3/5=4,6=6,7=101,11=2,16=1,25=1,30=1,71=1,74=-58,75=-5,116=1/1,2,3;
 4/5=5,16=3,69=1/1;
 5/5=2,38=5/2;
 7//1,2,3,16;
 1/7=-1,14=-1,18=20,19=15,26=4/3(-5);
 2/9=110/2;
 6/7=2,8=2,9=2,10=2,19=2,28=1/1;
 99/9=1/99;
 Leave Link    1 at Thu Mar  9 15:19:48 2017, MaxMem=   563347456 cpu:         0.4
 (Enter /share/apps/g09RelD.01/g09/l101.exe)
 --------------------
 AB2-mult-scan8_1.gjf
 --------------------
 Symbolic Z-matrix:
 Charge =  0 Multiplicity = 1
 B                     0.       -1.26681   0. 
 N                     1.28709   0.64289   0. 
 N                    -1.2867   -0.64164   0. 
 B                     0.0006    1.26792   0. 
 H                    -1.83546  -0.56919   0.84007 
 H                    -1.83546  -0.56919  -0.84007 
 H                    -0.45135   1.64393   1.04066 
 H                    -0.45135   1.64393  -1.04066 
 H                     1.83479   0.56386  -0.84014 
 H                     1.83479   0.56386   0.84014 
 H                     0.44916  -1.64578  -1.04111 
 H                     0.44916  -1.64578   1.04111 
 
 Add virtual bond connecting atoms N2         and B1         Dist= 4.35D+00.
 Add virtual bond connecting atoms B4         and N3         Dist= 4.35D+00.
 The following ModRedundant input section has been read:
 B       1       2 S   1 0.1000                                                
 B       3       4 F                                                           
 
 NAtoms=     12 NQM=       12 NQMF=       0 NMMI=      0 NMMIF=      0
                NMic=       0 NMicF=      0.
                    Isotopes and Nuclear Properties:
 (Nuclear quadrupole moments (NQMom) in fm**2, nuclear magnetic moments (NMagM)
  in nuclear magnetons)

  Atom         1           2           3           4           5           6           7           8           9          10
 IAtWgt=          11          14          14          11           1           1           1           1           1           1
 AtmWgt=  11.0093053  14.0030740  14.0030740  11.0093053   1.0078250   1.0078250   1.0078250   1.0078250   1.0078250   1.0078250
 NucSpn=           3           2           2           3           1           1           1           1           1           1
 AtZEff=   0.0000000   0.0000000   0.0000000   0.0000000   0.0000000   0.0000000   0.0000000   0.0000000   0.0000000   0.0000000
 NQMom=    4.0590000   2.0440000   2.0440000   4.0590000   0.0000000   0.0000000   0.0000000   0.0000000   0.0000000   0.0000000
 NMagM=    2.6886370   0.4037610   0.4037610   2.6886370   2.7928460   2.7928460   2.7928460   2.7928460   2.7928460   2.7928460
 AtZNuc=   5.0000000   7.0000000   7.0000000   5.0000000   1.0000000   1.0000000   1.0000000   1.0000000   1.0000000   1.0000000

  Atom        11          12
 IAtWgt=           1           1
 AtmWgt=   1.0078250   1.0078250
 NucSpn=           1           1
 AtZEff=   0.0000000   0.0000000
 NQMom=    0.0000000   0.0000000
 NMagM=    2.7928460   2.7928460
 AtZNuc=   1.0000000   1.0000000
 Leave Link  101 at Thu Mar  9 15:19:49 2017, MaxMem=   563347456 cpu:         1.6
 (Enter /share/apps/g09RelD.01/g09/l103.exe)

 GradGradGradGradGradGradGradGradGradGradGradGradGradGradGradGradGradGrad
 Berny optimization.
 Initialization pass.
                           ----------------------------
                           !    Initial Parameters    !
                           ! (Angstroms and Degrees)  !
 --------------------------                            --------------------------
 ! Name  Definition              Value          Derivative Info.                !
 --------------------------------------------------------------------------------
 ! R1    R(1,2)                  2.3029         Scan                            !
 ! R2    R(1,3)                  1.4305         estimate D2E/DX2                !
 ! R3    R(1,11)                 1.1955         estimate D2E/DX2                !
 ! R4    R(1,12)                 1.1955         estimate D2E/DX2                !
 ! R5    R(2,4)                  1.4303         estimate D2E/DX2                !
 ! R6    R(2,9)                  1.006          estimate D2E/DX2                !
 ! R7    R(2,10)                 1.006          estimate D2E/DX2                !
 ! R8    R(3,4)                  2.303          Frozen                          !
 ! R9    R(3,5)                  1.006          estimate D2E/DX2                !
 ! R10   R(3,6)                  1.006          estimate D2E/DX2                !
 ! R11   R(4,7)                  1.1952         estimate D2E/DX2                !
 ! R12   R(4,8)                  1.1952         estimate D2E/DX2                !
 ! A1    A(2,1,3)               98.065          estimate D2E/DX2                !
 ! A2    A(2,1,11)              93.0317         estimate D2E/DX2                !
 ! A3    A(2,1,12)              93.0317         estimate D2E/DX2                !
 ! A4    A(3,1,11)             118.4543         estimate D2E/DX2                !
 ! A5    A(3,1,12)             118.4543         estimate D2E/DX2                !
 ! A6    A(11,1,12)            121.113          estimate D2E/DX2                !
 ! A7    A(1,2,4)               81.9336         estimate D2E/DX2                !
 ! A8    A(1,2,9)              103.8347         estimate D2E/DX2                !
 ! A9    A(1,2,10)             103.8347         estimate D2E/DX2                !
 ! A10   A(4,2,9)              121.6026         estimate D2E/DX2                !
 ! A11   A(4,2,10)             121.6026         estimate D2E/DX2                !
 ! A12   A(9,2,10)             113.2569         estimate D2E/DX2                !
 ! A13   A(1,3,4)               81.9285         estimate D2E/DX2                !
 ! A14   A(1,3,5)              121.473          estimate D2E/DX2                !
 ! A15   A(1,3,6)              121.473          estimate D2E/DX2                !
 ! A16   A(4,3,5)              104.1932         estimate D2E/DX2                !
 ! A17   A(4,3,6)              104.1932         estimate D2E/DX2                !
 ! A18   A(5,3,6)              113.2381         estimate D2E/DX2                !
 ! A19   A(2,4,3)               98.0729         estimate D2E/DX2                !
 ! A20   A(2,4,7)              118.5275         estimate D2E/DX2                !
 ! A21   A(2,4,8)              118.5275         estimate D2E/DX2                !
 ! A22   A(3,4,7)               92.8363         estimate D2E/DX2                !
 ! A23   A(3,4,8)               92.8363         estimate D2E/DX2                !
 ! A24   A(7,4,8)              121.0723         estimate D2E/DX2                !
 ! D1    D(3,1,2,4)              0.0            estimate D2E/DX2                !
 ! D2    D(3,1,2,9)           -120.6753         estimate D2E/DX2                !
 ! D3    D(3,1,2,10)           120.6753         estimate D2E/DX2                !
 ! D4    D(11,1,2,4)           119.3009         estimate D2E/DX2                !
 ! D5    D(11,1,2,9)            -1.3744         estimate D2E/DX2                !
 ! D6    D(11,1,2,10)         -120.0238         estimate D2E/DX2                !
 ! D7    D(12,1,2,4)          -119.3009         estimate D2E/DX2                !
 ! D8    D(12,1,2,9)           120.0238         estimate D2E/DX2                !
 ! D9    D(12,1,2,10)            1.3744         estimate D2E/DX2                !
 ! D10   D(2,1,3,4)              0.0            estimate D2E/DX2                !
 ! D11   D(2,1,3,5)           -101.7447         estimate D2E/DX2                !
 ! D12   D(2,1,3,6)            101.7447         estimate D2E/DX2                !
 ! D13   D(11,1,3,4)           -97.9059         estimate D2E/DX2                !
 ! D14   D(11,1,3,5)           160.3494         estimate D2E/DX2                !
 ! D15   D(11,1,3,6)             3.8388         estimate D2E/DX2                !
 ! D16   D(12,1,3,4)            97.9059         estimate D2E/DX2                !
 ! D17   D(12,1,3,5)            -3.8388         estimate D2E/DX2                !
 ! D18   D(12,1,3,6)          -160.3494         estimate D2E/DX2                !
 ! D19   D(1,2,4,3)              0.0            estimate D2E/DX2                !
 ! D20   D(1,2,4,7)             97.6999         estimate D2E/DX2                !
 ! D21   D(1,2,4,8)            -97.6999         estimate D2E/DX2                !
 ! D22   D(9,2,4,3)            101.3245         estimate D2E/DX2                !
 ! D23   D(9,2,4,7)           -160.9756         estimate D2E/DX2                !
 ! D24   D(9,2,4,8)              3.6246         estimate D2E/DX2                !
 ! D25   D(10,2,4,3)          -101.3245         estimate D2E/DX2                !
 ! D26   D(10,2,4,7)            -3.6246         estimate D2E/DX2                !
 ! D27   D(10,2,4,8)           160.9756         estimate D2E/DX2                !
 ! D28   D(1,3,4,2)              0.0            estimate D2E/DX2                !
 ! D29   D(1,3,4,7)           -119.3392         estimate D2E/DX2                !
 ! D30   D(1,3,4,8)            119.3392         estimate D2E/DX2                !
 ! D31   D(5,3,4,2)            120.5345         estimate D2E/DX2                !
 ! D32   D(5,3,4,7)              1.1953         estimate D2E/DX2                !
 ! D33   D(5,3,4,8)           -120.1263         estimate D2E/DX2                !
 ! D34   D(6,3,4,2)           -120.5345         estimate D2E/DX2                !
 ! D35   D(6,3,4,7)            120.1263         estimate D2E/DX2                !
 ! D36   D(6,3,4,8)             -1.1953         estimate D2E/DX2                !
 --------------------------------------------------------------------------------
 Trust Radius=3.00D-01 FncErr=1.00D-07 GrdErr=1.00D-06
 Number of optimizations in scan=   2
 Number of steps in this run=     82 maximum allowed number of steps=    100.
 GradGradGradGradGradGradGradGradGradGradGradGradGradGradGradGradGradGrad

 Leave Link  103 at Thu Mar  9 15:19:49 2017, MaxMem=   563347456 cpu:         0.1
 (Enter /share/apps/g09RelD.01/g09/l202.exe)
                          Input orientation:                          
 ---------------------------------------------------------------------
 Center     Atomic      Atomic             Coordinates (Angstroms)
 Number     Number       Type             X           Y           Z
 ---------------------------------------------------------------------
      1          5           0        0.000000   -1.266811    0.000000
      2          7           0        1.287090    0.642894    0.000000
      3          7           0       -1.286703   -0.641636    0.000000
      4          5           0        0.000604    1.267925    0.000000
      5          1           0       -1.835464   -0.569185    0.840070
      6          1           0       -1.835464   -0.569185   -0.840070
      7          1           0       -0.451345    1.643929    1.040658
      8          1           0       -0.451345    1.643929   -1.040658
      9          1           0        1.834786    0.563855   -0.840137
     10          1           0        1.834786    0.563855    0.840137
     11          1           0        0.449161   -1.645784   -1.041113
     12          1           0        0.449161   -1.645784    1.041113
 ---------------------------------------------------------------------
                    Distance matrix (angstroms):
                    1          2          3          4          5
     1  B    0.000000
     2  N    2.302949   0.000000
     3  N    1.430541   2.876531   0.000000
     4  B    2.534736   1.430283   2.302951   0.000000
     5  H    2.135727   3.453288   1.006034   2.729805   0.000000
     6  H    2.135727   3.453288   1.006034   2.729805   1.680140
     7  H    3.123954   2.259911   2.646620   1.195243   2.617994
     8  H    3.123954   2.259911   2.646620   1.195243   3.217265
     9  H    2.724630   1.006006   3.450034   2.136766   4.192566
    10  H    2.724630   1.006006   3.450034   2.136766   3.841161
    11  H    1.195526   2.650300   2.259525   3.126471   3.149195
    12  H    1.195526   2.650300   2.259525   3.126471   2.533574
                    6          7          8          9         10
     6  H    0.000000
     7  H    3.217265   0.000000
     8  H    2.617994   2.081316   0.000000
     9  H    3.841161   3.151245   2.536368   0.000000
    10  H    4.192566   2.536368   3.151245   1.680274   0.000000
    11  H    2.533574   3.995860   3.410736   2.615885   3.215830
    12  H    3.149195   3.410736   3.995860   3.215830   2.615885
                   11         12
    11  H    0.000000
    12  H    2.082226   0.000000
 Stoichiometry    B2H8N2
 Framework group  CS[SG(B2N2),X(H8)]
 Deg. of freedom    17
 Full point group                 CS      NOp   2
 Largest Abelian subgroup         CS      NOp   2
 Largest concise Abelian subgroup CS      NOp   2
                         Standard orientation:                         
 ---------------------------------------------------------------------
 Center     Atomic      Atomic             Coordinates (Angstroms)
 Number     Number       Type             X           Y           Z
 ---------------------------------------------------------------------
      1          5           0        0.000000    1.266811    0.000000
      2          7           0       -1.287090   -0.642894    0.000000
      3          7           0        1.286703    0.641636    0.000000
      4          5           0       -0.000604   -1.267925    0.000000
      5          1           0        1.835464    0.569185    0.840070
      6          1           0        1.835464    0.569185   -0.840070
      7          1           0        0.451345   -1.643929    1.040658
      8          1           0        0.451345   -1.643929   -1.040658
      9          1           0       -1.834786   -0.563855   -0.840137
     10          1           0       -1.834786   -0.563855    0.840137
     11          1           0       -0.449161    1.645784   -1.041113
     12          1           0       -0.449161    1.645784    1.041113
 ---------------------------------------------------------------------
 Rotational constants (GHZ):     11.8122414      5.5210925      4.2151920
 Leave Link  202 at Thu Mar  9 15:19:49 2017, MaxMem=   563347456 cpu:         0.1
 (Enter /share/apps/g09RelD.01/g09/l301.exe)
 Standard basis: 6-311G(d,p) (5D, 7F)
 Ernie: Thresh=  0.10000D-02 Tol=  0.10000D-05 Strict=F.
 There are    80 symmetry adapted cartesian basis functions of A'  symmetry.
 There are    44 symmetry adapted cartesian basis functions of A"  symmetry.
 There are    76 symmetry adapted basis functions of A'  symmetry.
 There are    44 symmetry adapted basis functions of A"  symmetry.
   120 basis functions,   192 primitive gaussians,   124 cartesian basis functions
    16 alpha electrons       16 beta electrons
       nuclear repulsion energy       113.6775354495 Hartrees.
 IExCor= 4639 DFT=T Ex+Corr=wB97XD ExCW=0 ScaHFX=  1.000000
 ScaDFX=  1.000000  1.000000  1.000000  1.000000 ScalE2=  1.000000  1.000000
 IRadAn=      5 IRanWt=     -1 IRanGd=            0 ICorTp=0 IEmpDi=121
  HFx wShort=  0.000000 wLong=  0.200000 cFull=  0.222036 cShort=  0.000000 cLong=  0.777964
  DFx wShort=  0.000000 wLong=  0.200000 cFull=  0.000000 cShort=  0.000000 cLong=  1.000000
 NAtoms=   12 NActive=   12 NUniq=    8 SFac= 2.25D+00 NAtFMM=   60 NAOKFM=F Big=F
 Integral buffers will be    131072 words long.
 Raffenetti 2 integral format.
 Two-electron integral symmetry is turned on.
 R6Disp:  Grimme-D2 Dispersion energy=       -0.0056841334 Hartrees.
 Nuclear repulsion after empirical dispersion term =      113.6718513161 Hartrees.
 Leave Link  301 at Thu Mar  9 15:19:49 2017, MaxMem=   563347456 cpu:         0.4
 (Enter /share/apps/g09RelD.01/g09/l302.exe)
 NPDir=0 NMtPBC=     1 NCelOv=     1 NCel=       1 NClECP=     1 NCelD=      1
         NCelK=      1 NCelE2=     1 NClLst=     1 CellRange=     0.0.
 One-electron integrals computed using PRISM.
 One-electron integral symmetry used in STVInt
 NBasis=   120 RedAO= T EigKep=  5.85D-03  NBF=    76    44
 NBsUse=   120 1.00D-06 EigRej= -1.00D+00 NBFU=    76    44
 Precomputing XC quadrature grid using
 IXCGrd= 4 IRadAn=           5 IRanWt=          -1 IRanGd=           0 AccXCQ= 0.00D+00.
 Generated NRdTot=       0 NPtTot=           0 NUsed=           0 NTot=          32
 NSgBfM=   124   124   124   124   124 MxSgAt=    12 MxSgA2=    12.
 Leave Link  302 at Thu Mar  9 15:19:49 2017, MaxMem=   563347456 cpu:         1.6
 (Enter /share/apps/g09RelD.01/g09/l303.exe)
 DipDrv:  MaxL=1.
 Leave Link  303 at Thu Mar  9 15:19:49 2017, MaxMem=   563347456 cpu:         0.3
 (Enter /share/apps/g09RelD.01/g09/l401.exe)
 ExpMin= 9.89D-02 ExpMax= 6.29D+03 ExpMxC= 9.49D+02 IAcc=3 IRadAn=         5 AccDes= 0.00D+00
 Harris functional with IExCor= 4639 and IRadAn=       5 diagonalized for initial guess.
 HarFok:  IExCor= 4639 AccDes= 0.00D+00 IRadAn=         5 IDoV= 1 UseB2=F ITyADJ=14
 ICtDFT=  3500011 ScaDFX=  1.000000  1.000000  1.000000  1.000000
 FoFCou: FMM=F IPFlag=           0 FMFlag=      100000 FMFlg1=           0
         NFxFlg=           0 DoJE=T BraDBF=F KetDBF=T FulRan=T
         wScrn=  0.000000 ICntrl=     500 IOpCl=  0 I1Cent=   200000004 NGrid=           0
         NMat0=    1 NMatS0=      1 NMatT0=    0 NMatD0=    1 NMtDS0=    0 NMtDT0=    0
 Petite list used in FoFCou.
 Harris En= -156.188791323506    
 JPrj=0 DoOrth=F DoCkMO=F.
 Initial guess orbital symmetries:
       Occupied  (A') (A') (A') (A') (A') (A') (A') (A') (A") (A")
                 (A') (A') (A') (A") (A") (A')
       Virtual   (A') (A') (A') (A') (A") (A') (A") (A') (A") (A')
                 (A') (A") (A') (A") (A') (A") (A') (A') (A') (A")
                 (A') (A') (A") (A') (A') (A') (A") (A") (A") (A')
                 (A') (A") (A') (A') (A') (A") (A') (A') (A") (A')
                 (A") (A') (A") (A') (A") (A") (A') (A') (A') (A")
                 (A") (A') (A") (A') (A') (A") (A") (A') (A") (A')
                 (A') (A") (A") (A') (A') (A') (A") (A') (A') (A")
                 (A') (A') (A') (A') (A") (A") (A') (A") (A") (A')
                 (A') (A") (A") (A') (A') (A') (A') (A") (A') (A")
                 (A') (A') (A") (A") (A') (A') (A') (A') (A") (A")
                 (A') (A') (A') (A')
 The electronic state of the initial guess is 1-A'.
 Leave Link  401 at Thu Mar  9 15:19:51 2017, MaxMem=   563347456 cpu:         5.7
 (Enter /share/apps/g09RelD.01/g09/l502.exe)
 Closed shell SCF:
 Using DIIS extrapolation, IDIIS=  1040.
 Integral symmetry usage will be decided dynamically.
 Keep R1 ints in memory in symmetry-blocked form, NReq=79321962.
 IVT=       66538 IEndB=       66538 NGot=   563347456 MDV=   550002801
 LenX=   550002801 LenY=   549986984
 Requested convergence on RMS density matrix=1.00D-08 within 128 cycles.
 Requested convergence on MAX density matrix=1.00D-06.
 Requested convergence on             energy=1.00D-06.
 No special actions if energy rises.
 FoFCou: FMM=F IPFlag=           0 FMFlag=           0 FMFlg1=           0
         NFxFlg=           0 DoJE=F BraDBF=F KetDBF=F FulRan=T
         wScrn=  0.000000 ICntrl=     600 IOpCl=  0 I1Cent=           0 NGrid=           0
         NMat0=    1 NMatS0=   7260 NMatT0=    0 NMatD0=    1 NMtDS0=    0 NMtDT0=    0
 Petite list used in FoFCou.
 Integral accuracy reduced to 1.0D-05 until final iterations.

 Cycle   1  Pass 0  IDiag  1:
 E= -164.016406683184    
 DIIS: error= 9.94D-02 at cycle   1 NSaved=   1.
 NSaved= 1 IEnMin= 1 EnMin= -164.016406683184     IErMin= 1 ErrMin= 9.94D-02
 ErrMax= 9.94D-02  0.00D+00 EMaxC= 1.00D-01 BMatC= 3.43D-01 BMatP= 3.43D-01
 IDIUse=3 WtCom= 6.27D-03 WtEn= 9.94D-01
 Coeff-Com:  0.100D+01
 Coeff-En:   0.100D+01
 Coeff:      0.100D+01
 Gap=     0.429 Goal=   None    Shift=    0.000
 GapD=    0.429 DampG=2.000 DampE=0.500 DampFc=1.0000 IDamp=-1.
 RMSDP=1.49D-03 MaxDP=2.45D-02              OVMax= 7.87D-02

 Cycle   2  Pass 0  IDiag  1:
 E= -164.060311416257     Delta-E=       -0.043904733073 Rises=F Damp=F
 DIIS: error= 8.41D-03 at cycle   2 NSaved=   2.
 NSaved= 2 IEnMin= 2 EnMin= -164.060311416257     IErMin= 2 ErrMin= 8.41D-03
 ErrMax= 8.41D-03  0.00D+00 EMaxC= 1.00D-01 BMatC= 3.66D-03 BMatP= 3.43D-01
 IDIUse=3 WtCom= 9.16D-01 WtEn= 8.41D-02
 Coeff-Com:  0.537D-01 0.946D+00
 Coeff-En:   0.000D+00 0.100D+01
 Coeff:      0.492D-01 0.951D+00
 Gap=     0.408 Goal=   None    Shift=    0.000
 RMSDP=5.48D-04 MaxDP=1.92D-02 DE=-4.39D-02 OVMax= 1.68D-02

 Cycle   3  Pass 0  IDiag  1:
 E= -164.062931407614     Delta-E=       -0.002619991357 Rises=F Damp=F
 DIIS: error= 3.41D-03 at cycle   3 NSaved=   3.
 NSaved= 3 IEnMin= 3 EnMin= -164.062931407614     IErMin= 3 ErrMin= 3.41D-03
 ErrMax= 3.41D-03  0.00D+00 EMaxC= 1.00D-01 BMatC= 7.40D-04 BMatP= 3.66D-03
 IDIUse=3 WtCom= 9.66D-01 WtEn= 3.41D-02
 Coeff-Com:  0.138D-01 0.325D+00 0.662D+00
 Coeff-En:   0.000D+00 0.000D+00 0.100D+01
 Coeff:      0.134D-01 0.314D+00 0.673D+00
 Gap=     0.409 Goal=   None    Shift=    0.000
 RMSDP=1.74D-04 MaxDP=5.34D-03 DE=-2.62D-03 OVMax= 9.89D-03

 Cycle   4  Pass 0  IDiag  1:
 E= -164.063678932926     Delta-E=       -0.000747525312 Rises=F Damp=F
 DIIS: error= 3.96D-04 at cycle   4 NSaved=   4.
 NSaved= 4 IEnMin= 4 EnMin= -164.063678932926     IErMin= 4 ErrMin= 3.96D-04
 ErrMax= 3.96D-04  0.00D+00 EMaxC= 1.00D-01 BMatC= 1.58D-05 BMatP= 7.40D-04
 IDIUse=3 WtCom= 9.96D-01 WtEn= 3.96D-03
 Coeff-Com:  0.109D-03 0.312D-02 0.910D-01 0.906D+00
 Coeff-En:   0.000D+00 0.000D+00 0.000D+00 0.100D+01
 Coeff:      0.109D-03 0.311D-02 0.906D-01 0.906D+00
 Gap=     0.408 Goal=   None    Shift=    0.000
 RMSDP=3.22D-05 MaxDP=8.25D-04 DE=-7.48D-04 OVMax= 1.24D-03

 Cycle   5  Pass 0  IDiag  1:
 E= -164.063695208948     Delta-E=       -0.000016276022 Rises=F Damp=F
 DIIS: error= 3.19D-04 at cycle   5 NSaved=   5.
 NSaved= 5 IEnMin= 5 EnMin= -164.063695208948     IErMin= 5 ErrMin= 3.19D-04
 ErrMax= 3.19D-04  0.00D+00 EMaxC= 1.00D-01 BMatC= 4.11D-06 BMatP= 1.58D-05
 IDIUse=3 WtCom= 9.97D-01 WtEn= 3.19D-03
 Coeff-Com: -0.182D-02-0.374D-01-0.345D-01 0.380D+00 0.694D+00
 Coeff-En:   0.000D+00 0.000D+00 0.000D+00 0.000D+00 0.100D+01
 Coeff:     -0.182D-02-0.373D-01-0.344D-01 0.378D+00 0.695D+00
 Gap=     0.409 Goal=   None    Shift=    0.000
 RMSDP=1.38D-05 MaxDP=2.90D-04 DE=-1.63D-05 OVMax= 1.10D-03

 Cycle   6  Pass 0  IDiag  1:
 E= -164.063699572980     Delta-E=       -0.000004364032 Rises=F Damp=F
 DIIS: error= 4.05D-05 at cycle   6 NSaved=   6.
 NSaved= 6 IEnMin= 6 EnMin= -164.063699572980     IErMin= 6 ErrMin= 4.05D-05
 ErrMax= 4.05D-05  0.00D+00 EMaxC= 1.00D-01 BMatC= 1.43D-07 BMatP= 4.11D-06
 IDIUse=1 WtCom= 1.00D+00 WtEn= 0.00D+00
 Coeff-Com: -0.156D-03-0.402D-02-0.869D-02-0.548D-01 0.772D-01 0.990D+00
 Coeff:     -0.156D-03-0.402D-02-0.869D-02-0.548D-01 0.772D-01 0.990D+00
 Gap=     0.408 Goal=   None    Shift=    0.000
 RMSDP=4.03D-06 MaxDP=8.17D-05 DE=-4.36D-06 OVMax= 2.65D-04

 Initial convergence to 1.0D-05 achieved.  Increase integral accuracy.
 Cycle   7  Pass 1  IDiag  1:
 E= -164.063752138673     Delta-E=       -0.000052565694 Rises=F Damp=F
 DIIS: error= 2.81D-05 at cycle   1 NSaved=   1.
 NSaved= 1 IEnMin= 1 EnMin= -164.063752138673     IErMin= 1 ErrMin= 2.81D-05
 ErrMax= 2.81D-05  0.00D+00 EMaxC= 1.00D-01 BMatC= 1.42D-07 BMatP= 1.42D-07
 IDIUse=1 WtCom= 1.00D+00 WtEn= 0.00D+00
 Coeff-Com:  0.100D+01
 Coeff:      0.100D+01
 Gap=     0.408 Goal=   None    Shift=    0.000
 RMSDP=4.03D-06 MaxDP=8.17D-05 DE=-5.26D-05 OVMax= 9.59D-05

 Cycle   8  Pass 1  IDiag  1:
 E= -164.063752305752     Delta-E=       -0.000000167079 Rises=F Damp=F
 DIIS: error= 8.13D-06 at cycle   2 NSaved=   2.
 NSaved= 2 IEnMin= 2 EnMin= -164.063752305752     IErMin= 2 ErrMin= 8.13D-06
 ErrMax= 8.13D-06  0.00D+00 EMaxC= 1.00D-01 BMatC= 6.41D-09 BMatP= 1.42D-07
 IDIUse=1 WtCom= 1.00D+00 WtEn= 0.00D+00
 Coeff-Com: -0.509D-01 0.105D+01
 Coeff:     -0.509D-01 0.105D+01
 Gap=     0.408 Goal=   None    Shift=    0.000
 RMSDP=8.37D-07 MaxDP=1.31D-05 DE=-1.67D-07 OVMax= 3.49D-05

 Cycle   9  Pass 1  IDiag  1:
 E= -164.063752311934     Delta-E=       -0.000000006182 Rises=F Damp=F
 DIIS: error= 6.29D-06 at cycle   3 NSaved=   3.
 NSaved= 3 IEnMin= 3 EnMin= -164.063752311934     IErMin= 3 ErrMin= 6.29D-06
 ErrMax= 6.29D-06  0.00D+00 EMaxC= 1.00D-01 BMatC= 3.00D-09 BMatP= 6.41D-09
 IDIUse=1 WtCom= 1.00D+00 WtEn= 0.00D+00
 Coeff-Com: -0.563D-01 0.431D+00 0.626D+00
 Coeff:     -0.563D-01 0.431D+00 0.626D+00
 Gap=     0.408 Goal=   None    Shift=    0.000
 RMSDP=2.95D-07 MaxDP=1.03D-05 DE=-6.18D-09 OVMax= 1.96D-05

 Cycle  10  Pass 1  IDiag  1:
 E= -164.063752314445     Delta-E=       -0.000000002511 Rises=F Damp=F
 DIIS: error= 1.80D-06 at cycle   4 NSaved=   4.
 NSaved= 4 IEnMin= 4 EnMin= -164.063752314445     IErMin= 4 ErrMin= 1.80D-06
 ErrMax= 1.80D-06  0.00D+00 EMaxC= 1.00D-01 BMatC= 2.17D-10 BMatP= 3.00D-09
 IDIUse=1 WtCom= 1.00D+00 WtEn= 0.00D+00
 Coeff-Com: -0.138D-01 0.481D-01 0.219D+00 0.747D+00
 Coeff:     -0.138D-01 0.481D-01 0.219D+00 0.747D+00
 Gap=     0.408 Goal=   None    Shift=    0.000
 RMSDP=9.81D-08 MaxDP=2.48D-06 DE=-2.51D-09 OVMax= 6.90D-06

 Cycle  11  Pass 1  IDiag  1:
 E= -164.063752314668     Delta-E=       -0.000000000223 Rises=F Damp=F
 DIIS: error= 4.27D-07 at cycle   5 NSaved=   5.
 NSaved= 5 IEnMin= 5 EnMin= -164.063752314668     IErMin= 5 ErrMin= 4.27D-07
 ErrMax= 4.27D-07  0.00D+00 EMaxC= 1.00D-01 BMatC= 1.60D-11 BMatP= 2.17D-10
 IDIUse=1 WtCom= 1.00D+00 WtEn= 0.00D+00
 Coeff-Com:  0.236D-02-0.364D-01-0.110D-01 0.195D+00 0.850D+00
 Coeff:      0.236D-02-0.364D-01-0.110D-01 0.195D+00 0.850D+00
 Gap=     0.408 Goal=   None    Shift=    0.000
 RMSDP=5.03D-08 MaxDP=7.79D-07 DE=-2.23D-10 OVMax= 3.21D-06

 Cycle  12  Pass 1  IDiag  1:
 E= -164.063752314696     Delta-E=       -0.000000000029 Rises=F Damp=F
 DIIS: error= 1.54D-07 at cycle   6 NSaved=   6.
 NSaved= 6 IEnMin= 6 EnMin= -164.063752314696     IErMin= 6 ErrMin= 1.54D-07
 ErrMax= 1.54D-07  0.00D+00 EMaxC= 1.00D-01 BMatC= 9.21D-13 BMatP= 1.60D-11
 IDIUse=1 WtCom= 1.00D+00 WtEn= 0.00D+00
 Coeff-Com:  0.114D-02-0.783D-02-0.162D-01-0.334D-01 0.802D-01 0.976D+00
 Coeff:      0.114D-02-0.783D-02-0.162D-01-0.334D-01 0.802D-01 0.976D+00
 Gap=     0.408 Goal=   None    Shift=    0.000
 RMSDP=1.86D-08 MaxDP=3.00D-07 DE=-2.86D-11 OVMax= 1.62D-06

 Cycle  13  Pass 1  IDiag  1:
 E= -164.063752314699     Delta-E=       -0.000000000003 Rises=F Damp=F
 DIIS: error= 6.71D-08 at cycle   7 NSaved=   7.
 NSaved= 7 IEnMin= 7 EnMin= -164.063752314699     IErMin= 7 ErrMin= 6.71D-08
 ErrMax= 6.71D-08  0.00D+00 EMaxC= 1.00D-01 BMatC= 2.79D-13 BMatP= 9.21D-13
 IDIUse=1 WtCom= 1.00D+00 WtEn= 0.00D+00
 Coeff-Com:  0.103D-03 0.153D-02-0.414D-02-0.350D-01-0.763D-01 0.371D+00
 Coeff-Com:  0.742D+00
 Coeff:      0.103D-03 0.153D-02-0.414D-02-0.350D-01-0.763D-01 0.371D+00
 Coeff:      0.742D+00
 Gap=     0.408 Goal=   None    Shift=    0.000
 RMSDP=6.22D-09 MaxDP=8.97D-08 DE=-3.07D-12 OVMax= 6.24D-07

 SCF Done:  E(RwB97XD) =  -164.063752315     A.U. after   13 cycles
            NFock= 13  Conv=0.62D-08     -V/T= 2.0043
 KE= 1.633547797950D+02 PE=-6.086693025361D+02 EE= 1.675789191104D+02
 Leave Link  502 at Thu Mar  9 15:20:09 2017, MaxMem=   563347456 cpu:        70.8
 (Enter /share/apps/g09RelD.01/g09/l601.exe)
 Copying SCF densities to generalized density rwf, IOpCl= 0 IROHF=0.

 **********************************************************************

            Population analysis using the SCF density.

 **********************************************************************

 Orbital symmetries:
       Occupied  (A') (A') (A') (A') (A') (A') (A') (A') (A") (A")
                 (A') (A') (A') (A") (A") (A')
       Virtual   (A') (A') (A') (A") (A') (A") (A') (A') (A") (A')
                 (A") (A') (A") (A') (A') (A") (A') (A') (A') (A")
                 (A") (A') (A') (A') (A') (A') (A") (A") (A') (A")
                 (A') (A") (A') (A') (A') (A") (A') (A') (A") (A')
                 (A") (A') (A") (A') (A") (A") (A') (A') (A') (A")
                 (A") (A") (A') (A") (A') (A') (A") (A') (A") (A')
                 (A') (A") (A") (A') (A') (A') (A") (A') (A') (A")
                 (A') (A') (A') (A') (A") (A") (A') (A") (A") (A')
                 (A') (A") (A") (A') (A') (A') (A') (A") (A') (A")
                 (A') (A') (A") (A") (A') (A') (A') (A') (A") (A")
                 (A') (A') (A') (A')
 The electronic state is 1-A'.
 Alpha  occ. eigenvalues --  -14.41733 -14.41707  -6.84119  -6.84106  -0.97005
 Alpha  occ. eigenvalues --   -0.95385  -0.62211  -0.60135  -0.60012  -0.58543
 Alpha  occ. eigenvalues --   -0.47790  -0.47566  -0.42256  -0.40123  -0.39717
 Alpha  occ. eigenvalues --   -0.32514
 Alpha virt. eigenvalues --    0.08333   0.11058   0.14429   0.15335   0.15948
 Alpha virt. eigenvalues --    0.19457   0.20604   0.20878   0.23720   0.24603
 Alpha virt. eigenvalues --    0.27115   0.28099   0.34154   0.34350   0.39178
 Alpha virt. eigenvalues --    0.40299   0.46099   0.47590   0.50460   0.52666
 Alpha virt. eigenvalues --    0.55027   0.55492   0.55578   0.60003   0.63096
 Alpha virt. eigenvalues --    0.65997   0.66606   0.70072   0.78140   0.78482
 Alpha virt. eigenvalues --    0.78636   0.81284   0.83233   0.91223   0.94357
 Alpha virt. eigenvalues --    1.01108   1.02295   1.03397   1.03729   1.14358
 Alpha virt. eigenvalues --    1.21597   1.25615   1.26383   1.30763   1.32443
 Alpha virt. eigenvalues --    1.34664   1.39515   1.46589   1.64087   1.66510
 Alpha virt. eigenvalues --    1.68940   1.70543   1.72811   1.74567   1.75595
 Alpha virt. eigenvalues --    1.77984   1.82586   1.82846   1.89440   1.94718
 Alpha virt. eigenvalues --    2.00339   2.02808   2.02924   2.04937   2.09729
 Alpha virt. eigenvalues --    2.11983   2.15569   2.17308   2.19419   2.20202
 Alpha virt. eigenvalues --    2.30382   2.31825   2.49591   2.52793   2.53204
 Alpha virt. eigenvalues --    2.56908   2.60991   2.61091   2.62179   2.63656
 Alpha virt. eigenvalues --    2.66673   2.76307   2.76519   2.81146   2.81629
 Alpha virt. eigenvalues --    2.92076   2.93588   2.99380   3.04908   3.06243
 Alpha virt. eigenvalues --    3.09680   3.20367   3.31739   3.32209   3.96778
 Alpha virt. eigenvalues --    4.02845   4.69777   4.82146   4.86842   4.87042
 Alpha virt. eigenvalues --   14.76462  14.79045  35.72647  35.75775
          Condensed to atoms (all electrons):
               1          2          3          4          5          6
     1  B    3.581321   0.054759   0.429361  -0.005671  -0.034275  -0.034275
     2  N    0.054759   6.379763  -0.040321   0.429675   0.001004   0.001004
     3  N    0.429361  -0.040321   6.380571   0.054202   0.376176   0.376176
     4  B   -0.005671   0.429675   0.054202   3.579179  -0.002430  -0.002430
     5  H   -0.034275   0.001004   0.376176  -0.002430   0.465065  -0.034108
     6  H   -0.034275   0.001004   0.376176  -0.002430  -0.034108   0.465065
     7  H   -0.004452  -0.022731  -0.012613   0.436509  -0.001680   0.000953
     8  H   -0.004452  -0.022731  -0.012613   0.436509   0.000953  -0.001680
     9  H   -0.002476   0.376143   0.000995  -0.034184  -0.000086   0.000005
    10  H   -0.002476   0.376143   0.000995  -0.034184   0.000005  -0.000086
    11  H    0.436505  -0.012617  -0.022860  -0.004424   0.006098  -0.010328
    12  H    0.436505  -0.012617  -0.022860  -0.004424  -0.010328   0.006098
               7          8          9         10         11         12
     1  B   -0.004452  -0.004452  -0.002476  -0.002476   0.436505   0.436505
     2  N   -0.022731  -0.022731   0.376143   0.376143  -0.012617  -0.012617
     3  N   -0.012613  -0.012613   0.000995   0.000995  -0.022860  -0.022860
     4  B    0.436509   0.436509  -0.034184  -0.034184  -0.004424  -0.004424
     5  H   -0.001680   0.000953  -0.000086   0.000005   0.006098  -0.010328
     6  H    0.000953  -0.001680   0.000005  -0.000086  -0.010328   0.006098
     7  H    0.689420  -0.026387   0.006077  -0.010264  -0.000475   0.001178
     8  H   -0.026387   0.689420  -0.010264   0.006077   0.001178  -0.000475
     9  H    0.006077  -0.010264   0.464824  -0.034115  -0.001697   0.000950
    10  H   -0.010264   0.006077  -0.034115   0.464824   0.000950  -0.001697
    11  H   -0.000475   0.001178  -0.001697   0.000950   0.689090  -0.026213
    12  H    0.001178  -0.000475   0.000950  -0.001697  -0.026213   0.689090
 Mulliken charges:
               1
     1  B    0.149626
     2  N   -0.507475
     3  N   -0.507209
     4  B    0.151673
     5  H    0.233606
     6  H    0.233606
     7  H   -0.055535
     8  H   -0.055535
     9  H    0.233829
    10  H    0.233829
    11  H   -0.055207
    12  H   -0.055207
 Sum of Mulliken charges =   0.00000
 Mulliken charges with hydrogens summed into heavy atoms:
               1
     1  B    0.039211
     2  N   -0.039818
     3  N   -0.039997
     4  B    0.040604
 Electronic spatial extent (au):  <R**2>=            340.3183
 Charge=              0.0000 electrons
 Dipole moment (field-independent basis, Debye):
    X=             -0.0018    Y=              0.0111    Z=              0.0000  Tot=              0.0112
 Quadrupole moment (field-independent basis, Debye-Ang):
   XX=            -20.9297   YY=            -32.9098   ZZ=            -26.5257
   XY=              2.6456   XZ=              0.0000   YZ=              0.0000
 Traceless Quadrupole moment (field-independent basis, Debye-Ang):
   XX=              5.8587   YY=             -6.1214   ZZ=              0.2627
   XY=              2.6456   XZ=              0.0000   YZ=              0.0000
 Octapole moment (field-independent basis, Debye-Ang**2):
  XXX=              0.0236  YYY=             -0.0092  ZZZ=              0.0000  XYY=              0.0423
  XXY=              0.0749  XXZ=              0.0000  XZZ=              0.0015  YZZ=              0.0141
  YYZ=              0.0000  XYZ=              0.0000
 Hexadecapole moment (field-independent basis, Debye-Ang**3):
 XXXX=           -152.5369 YYYY=           -248.8601 ZZZZ=            -66.0114 XXXY=            -16.7737
 XXXZ=              0.0000 YYYX=            -22.2026 YYYZ=              0.0000 ZZZX=              0.0000
 ZZZY=              0.0000 XXYY=            -75.6999 XXZZ=            -28.8356 YYZZ=            -55.4680
 XXYZ=              0.0000 YYXZ=              0.0000 ZZXY=             -3.1232
 N-N= 1.136718513161D+02 E-N=-6.086692984492D+02  KE= 1.633547797950D+02
 Symmetry A'   KE= 1.549726735278D+02
 Symmetry A"   KE= 8.382106267222D+00
 No NMR shielding tensors so no spin-rotation constants.
 Leave Link  601 at Thu Mar  9 15:20:10 2017, MaxMem=   563347456 cpu:         0.9
 (Enter /share/apps/g09RelD.01/g09/l701.exe)
 Compute integral first derivatives.
 ... and contract with generalized density number  0.
 R6Disp: Adding Grimme-D2 dispersion energy 1st derivatives to the gradient.
 Leave Link  701 at Thu Mar  9 15:20:10 2017, MaxMem=   563347456 cpu:         1.0
 (Enter /share/apps/g09RelD.01/g09/l702.exe)
 L702 exits ... SP integral derivatives will be done elsewhere.
 Leave Link  702 at Thu Mar  9 15:20:10 2017, MaxMem=   563347456 cpu:         0.2
 (Enter /share/apps/g09RelD.01/g09/l703.exe)
 Compute integral first derivatives, UseDBF=F ICtDFT=           0.
 Integral derivatives from FoFJK, PRISM(SPDF).
 Calling FoFJK, ICntrl=      2127 FMM=F ISym2X=1 I1Cent= 0 IOpClX= 0 NMat=1 NMatS=1 NMatT=0.
 FoFJK:  IHMeth= 1 ICntrl=    2127 DoSepK=T KAlg= 0 I1Cent=   0 FoldK=F
 IRaf=         1 NMat=   1 IRICut=       1 DoRegI=T DoRafI=F ISym2E= 1.
 FoFCou: FMM=F IPFlag=           0 FMFlag=      100000 FMFlg1=         800
         NFxFlg=           0 DoJE=F BraDBF=F KetDBF=F FulRan=T
         wScrn=  0.000000 ICntrl=    2527 IOpCl=  0 I1Cent=           0 NGrid=           0
         NMat0=    1 NMatS0=      1 NMatT0=    0 NMatD0=    1 NMtDS0=    0 NMtDT0=    0
 Petite list used in FoFCou.
 Leave Link  703 at Thu Mar  9 15:20:15 2017, MaxMem=   563347456 cpu:        17.7
 (Enter /share/apps/g09RelD.01/g09/l716.exe)
 Dipole        =-6.94953006D-04 4.36441439D-03-2.22044605D-16
 ***** Axes restored to original set *****
 -------------------------------------------------------------------
 Center     Atomic                   Forces (Hartrees/Bohr)
 Number     Number              X              Y              Z
 -------------------------------------------------------------------
      1        5          -0.002288858   -0.002921774    0.000000000
      2        7           0.002993086    0.004573154    0.000000000
      3        7          -0.002976913   -0.004934691    0.000000000
      4        5           0.001884432    0.002559352    0.000000000
      5        1           0.000134428    0.000524739    0.000003456
      6        1           0.000134428    0.000524739   -0.000003456
      7        1           0.000142289    0.000187043    0.000058193
      8        1           0.000142289    0.000187043   -0.000058193
      9        1          -0.000147430   -0.000373655   -0.000016551
     10        1          -0.000147430   -0.000373655    0.000016551
     11        1           0.000064839    0.000023853    0.000060341
     12        1           0.000064839    0.000023853   -0.000060341
 -------------------------------------------------------------------
 Cartesian Forces:  Max     0.004934691 RMS     0.001563531
 Leave Link  716 at Thu Mar  9 15:20:15 2017, MaxMem=   563347456 cpu:         0.2
 (Enter /share/apps/g09RelD.01/g09/l103.exe)

 GradGradGradGradGradGradGradGradGradGradGradGradGradGradGradGradGradGrad
 Berny optimization.
 FormGI is forming the generalized inverse of G from B-inverse, IUseBI=4.
 Internal  Forces:  Max     0.004218754 RMS     0.000704616
 Search for a local minimum.
 Step number   1 out of a maximum of   82 on scan point     1 out of     2
 All quantities printed in internal units (Hartrees-Bohrs-Radians)
 RMS Force = .12500D-03 SwitMx=.10000D-02 MixMth= 2
 Mixed Optimization -- En-DIIS/RFO-DIIS
 Second derivative matrix not updated -- first step.
 ITU=  0
     Eigenvalues ---    0.00561   0.02648   0.03710   0.03777   0.04202
     Eigenvalues ---    0.04443   0.04700   0.04846   0.06750   0.07240
     Eigenvalues ---    0.07644   0.07912   0.07960   0.08112   0.08123
     Eigenvalues ---    0.08789   0.08825   0.21794   0.24995   0.24995
     Eigenvalues ---    0.25016   0.25016   0.38267   0.40930   0.46643
     Eigenvalues ---    0.46643   0.46648   0.466481000.000001000.00000
     Eigenvalues --- 1000.000001000.000001000.000001000.000001000.00000
     Eigenvalues --- 1000.000001000.000001000.000001000.000001000.00000
     Eigenvalues --- 1000.000001000.000001000.000001000.000001000.00000
     Eigenvalues --- 1000.000001000.000001000.000001000.000001000.00000
     Eigenvalues --- 1000.000001000.000001000.000001000.000001000.00000
     Eigenvalues --- 1000.000001000.000001000.000001000.000001000.00000
     Eigenvalues --- 1000.000001000.000001000.000001000.000001000.00000
     Eigenvalues --- 1000.000001000.000001000.000001000.000001000.00000
     Eigenvalues --- 1000.000001000.00000
 RFO step:  Lambda=-2.06345869D-05 EMin= 5.60752459D-03
 Linear search not attempted -- first point.
 Iteration  1 RMS(Cart)=  0.00130588 RMS(Int)=  0.00000600
 Iteration  2 RMS(Cart)=  0.00000363 RMS(Int)=  0.00000500
 Iteration  3 RMS(Cart)=  0.00000000 RMS(Int)=  0.00000500
 Iteration  1 RMS(Cart)=  0.00000016 RMS(Int)=  0.00000007
 ITry= 1 IFail=0 DXMaxC= 4.04D-03 DCOld= 1.00D+10 DXMaxT= 3.00D-01 DXLimC= 3.00D+00 Rises=F
 ClnCor:  largest displacement from symmetrization is 1.47D-12 for atom     6.
 Variable       Old X    -DE/DX   Delta X   Delta X   Delta X     New X
                                 (Linear)    (Quad)   (Total)
    R1        4.35194   0.00411   0.00000   0.00000   0.00000   4.35194
    R2        2.70333   0.00004   0.00000   0.00021   0.00021   2.70354
    R3        2.25922  -0.00003   0.00000  -0.00013  -0.00013   2.25909
    R4        2.25922  -0.00003   0.00000  -0.00013  -0.00013   2.25909
    R5        2.70284   0.00002   0.00000  -0.00004  -0.00004   2.70280
    R6        1.90108  -0.00004   0.00000  -0.00009  -0.00009   1.90099
    R7        1.90108  -0.00004   0.00000  -0.00009  -0.00009   1.90099
    R8        4.35195   0.00422   0.00000   0.00000   0.00000   4.35195
    R9        1.90113  -0.00004   0.00000  -0.00008  -0.00008   1.90105
   R10        1.90113  -0.00004   0.00000  -0.00008  -0.00008   1.90105
   R11        2.25868   0.00006   0.00000   0.00024   0.00024   2.25892
   R12        2.25868   0.00006   0.00000   0.00024   0.00024   2.25892
    A1        1.71156   0.00026   0.00000   0.00200   0.00200   1.71356
    A2        1.62371  -0.00014   0.00000  -0.00095  -0.00095   1.62276
    A3        1.62371  -0.00014   0.00000  -0.00095  -0.00095   1.62276
    A4        2.06742   0.00002   0.00000   0.00033   0.00033   2.06774
    A5        2.06742   0.00002   0.00000   0.00033   0.00033   2.06774
    A6        2.11382  -0.00004   0.00000  -0.00068  -0.00068   2.11314
    A7        1.43001  -0.00022   0.00000  -0.00202  -0.00202   1.42799
    A8        1.81226  -0.00005   0.00000  -0.00264  -0.00264   1.80962
    A9        1.81226  -0.00005   0.00000  -0.00264  -0.00264   1.80962
   A10        2.12237   0.00006   0.00000   0.00111   0.00110   2.12347
   A11        2.12237   0.00006   0.00000   0.00111   0.00110   2.12347
   A12        1.97671   0.00001   0.00000   0.00056   0.00054   1.97725
   A13        1.42992  -0.00026   0.00000  -0.00206  -0.00206   1.42786
   A14        2.12010   0.00010   0.00000   0.00180   0.00179   2.12189
   A15        2.12010   0.00010   0.00000   0.00180   0.00179   2.12189
   A16        1.81851  -0.00008   0.00000  -0.00373  -0.00372   1.81479
   A17        1.81851  -0.00008   0.00000  -0.00373  -0.00372   1.81479
   A18        1.97638  -0.00002   0.00000   0.00020   0.00018   1.97655
   A19        1.71169   0.00022   0.00000   0.00208   0.00208   1.71377
   A20        2.06869  -0.00006   0.00000  -0.00074  -0.00075   2.06794
   A21        2.06869  -0.00006   0.00000  -0.00074  -0.00075   2.06794
   A22        1.62030   0.00002   0.00000   0.00180   0.00180   1.62210
   A23        1.62030   0.00002   0.00000   0.00180   0.00180   1.62210
   A24        2.11311   0.00004   0.00000  -0.00005  -0.00006   2.11305
    D1        0.00000   0.00000   0.00000   0.00000   0.00000   0.00000
    D2       -2.10618  -0.00002   0.00000  -0.00079  -0.00079  -2.10697
    D3        2.10618   0.00002   0.00000   0.00079   0.00079   2.10697
    D4        2.08219   0.00003   0.00000   0.00043   0.00043   2.08262
    D5       -0.02399   0.00002   0.00000  -0.00036  -0.00036  -0.02434
    D6       -2.09481   0.00005   0.00000   0.00122   0.00122  -2.09359
    D7       -2.08219  -0.00003   0.00000  -0.00043  -0.00043  -2.08262
    D8        2.09481  -0.00005   0.00000  -0.00122  -0.00122   2.09359
    D9        0.02399  -0.00002   0.00000   0.00036   0.00036   0.02434
   D10        0.00000   0.00000   0.00000   0.00000   0.00000   0.00000
   D11       -1.77578   0.00025   0.00000   0.00563   0.00563  -1.77014
   D12        1.77578  -0.00025   0.00000  -0.00563  -0.00563   1.77014
   D13       -1.70878   0.00000   0.00000  -0.00010  -0.00010  -1.70888
   D14        2.79863   0.00026   0.00000   0.00553   0.00553   2.80416
   D15        0.06700  -0.00025   0.00000  -0.00573  -0.00574   0.06126
   D16        1.70878   0.00000   0.00000   0.00010   0.00010   1.70888
   D17       -0.06700   0.00025   0.00000   0.00573   0.00574  -0.06126
   D18       -2.79863  -0.00026   0.00000  -0.00553  -0.00553  -2.80416
   D19        0.00000   0.00000   0.00000   0.00000   0.00000   0.00000
   D20        1.70518   0.00014   0.00000   0.00310   0.00310   1.70829
   D21       -1.70518  -0.00014   0.00000  -0.00310  -0.00310  -1.70829
   D22        1.76845  -0.00019   0.00000  -0.00433  -0.00433   1.76411
   D23       -2.80955  -0.00005   0.00000  -0.00123  -0.00123  -2.81079
   D24        0.06326  -0.00033   0.00000  -0.00744  -0.00744   0.05582
   D25       -1.76845   0.00019   0.00000   0.00433   0.00433  -1.76411
   D26       -0.06326   0.00033   0.00000   0.00744   0.00744  -0.05582
   D27        2.80955   0.00005   0.00000   0.00123   0.00123   2.81079
   D28        0.00000   0.00000   0.00000   0.00000   0.00000   0.00000
   D29       -2.08286   0.00002   0.00000   0.00013   0.00013  -2.08273
   D30        2.08286  -0.00002   0.00000  -0.00013  -0.00013   2.08273
   D31        2.10372   0.00005   0.00000   0.00149   0.00148   2.10521
   D32        0.02086   0.00007   0.00000   0.00162   0.00162   0.02248
   D33       -2.09660   0.00002   0.00000   0.00135   0.00135  -2.09525
   D34       -2.10372  -0.00005   0.00000  -0.00149  -0.00148  -2.10521
   D35        2.09660  -0.00002   0.00000  -0.00135  -0.00135   2.09525
   D36       -0.02086  -0.00007   0.00000  -0.00162  -0.00162  -0.02248
         Item               Value     Threshold  Converged?
 Maximum Force            0.000338     0.002500     YES
 RMS     Force            0.000125     0.001667     YES
 Maximum Displacement     0.004039     0.010000     YES
 RMS     Displacement     0.001305     0.006667     YES
 Predicted change in Energy=-1.033568D-05
 Optimization completed.
    -- Stationary point found.
                           ----------------------------
                           !   Optimized Parameters   !
                           ! (Angstroms and Degrees)  !
 --------------------------                            --------------------------
 ! Name  Definition              Value          Derivative Info.                !
 --------------------------------------------------------------------------------
 ! R1    R(1,2)                  2.3029         -DE/DX =    0.0041              !
 ! R2    R(1,3)                  1.4305         -DE/DX =    0.0                 !
 ! R3    R(1,11)                 1.1955         -DE/DX =    0.0                 !
 ! R4    R(1,12)                 1.1955         -DE/DX =    0.0                 !
 ! R5    R(2,4)                  1.4303         -DE/DX =    0.0                 !
 ! R6    R(2,9)                  1.006          -DE/DX =    0.0                 !
 ! R7    R(2,10)                 1.006          -DE/DX =    0.0                 !
 ! R8    R(3,4)                  2.303          -DE/DX =    0.0042              !
 ! R9    R(3,5)                  1.006          -DE/DX =    0.0                 !
 ! R10   R(3,6)                  1.006          -DE/DX =    0.0                 !
 ! R11   R(4,7)                  1.1952         -DE/DX =    0.0001              !
 ! R12   R(4,8)                  1.1952         -DE/DX =    0.0001              !
 ! A1    A(2,1,3)               98.065          -DE/DX =    0.0003              !
 ! A2    A(2,1,11)              93.0317         -DE/DX =   -0.0001              !
 ! A3    A(2,1,12)              93.0317         -DE/DX =   -0.0001              !
 ! A4    A(3,1,11)             118.4543         -DE/DX =    0.0                 !
 ! A5    A(3,1,12)             118.4543         -DE/DX =    0.0                 !
 ! A6    A(11,1,12)            121.113          -DE/DX =    0.0                 !
 ! A7    A(1,2,4)               81.9336         -DE/DX =   -0.0002              !
 ! A8    A(1,2,9)              103.8347         -DE/DX =   -0.0001              !
 ! A9    A(1,2,10)             103.8347         -DE/DX =   -0.0001              !
 ! A10   A(4,2,9)              121.6026         -DE/DX =    0.0001              !
 ! A11   A(4,2,10)             121.6026         -DE/DX =    0.0001              !
 ! A12   A(9,2,10)             113.2569         -DE/DX =    0.0                 !
 ! A13   A(1,3,4)               81.9285         -DE/DX =   -0.0003              !
 ! A14   A(1,3,5)              121.473          -DE/DX =    0.0001              !
 ! A15   A(1,3,6)              121.473          -DE/DX =    0.0001              !
 ! A16   A(4,3,5)              104.1932         -DE/DX =   -0.0001              !
 ! A17   A(4,3,6)              104.1932         -DE/DX =   -0.0001              !
 ! A18   A(5,3,6)              113.2381         -DE/DX =    0.0                 !
 ! A19   A(2,4,3)               98.0729         -DE/DX =    0.0002              !
 ! A20   A(2,4,7)              118.5275         -DE/DX =   -0.0001              !
 ! A21   A(2,4,8)              118.5275         -DE/DX =   -0.0001              !
 ! A22   A(3,4,7)               92.8363         -DE/DX =    0.0                 !
 ! A23   A(3,4,8)               92.8363         -DE/DX =    0.0                 !
 ! A24   A(7,4,8)              121.0723         -DE/DX =    0.0                 !
 ! D1    D(3,1,2,4)              0.0            -DE/DX =    0.0                 !
 ! D2    D(3,1,2,9)           -120.6753         -DE/DX =    0.0                 !
 ! D3    D(3,1,2,10)           120.6753         -DE/DX =    0.0                 !
 ! D4    D(11,1,2,4)           119.3009         -DE/DX =    0.0                 !
 ! D5    D(11,1,2,9)            -1.3744         -DE/DX =    0.0                 !
 ! D6    D(11,1,2,10)         -120.0238         -DE/DX =    0.0                 !
 ! D7    D(12,1,2,4)          -119.3009         -DE/DX =    0.0                 !
 ! D8    D(12,1,2,9)           120.0238         -DE/DX =    0.0                 !
 ! D9    D(12,1,2,10)            1.3744         -DE/DX =    0.0                 !
 ! D10   D(2,1,3,4)              0.0            -DE/DX =    0.0                 !
 ! D11   D(2,1,3,5)           -101.7447         -DE/DX =    0.0003              !
 ! D12   D(2,1,3,6)            101.7447         -DE/DX =   -0.0003              !
 ! D13   D(11,1,3,4)           -97.9059         -DE/DX =    0.0                 !
 ! D14   D(11,1,3,5)           160.3494         -DE/DX =    0.0003              !
 ! D15   D(11,1,3,6)             3.8388         -DE/DX =   -0.0003              !
 ! D16   D(12,1,3,4)            97.9059         -DE/DX =    0.0                 !
 ! D17   D(12,1,3,5)            -3.8388         -DE/DX =    0.0003              !
 ! D18   D(12,1,3,6)          -160.3494         -DE/DX =   -0.0003              !
 ! D19   D(1,2,4,3)              0.0            -DE/DX =    0.0                 !
 ! D20   D(1,2,4,7)             97.6999         -DE/DX =    0.0001              !
 ! D21   D(1,2,4,8)            -97.6999         -DE/DX =   -0.0001              !
 ! D22   D(9,2,4,3)            101.3245         -DE/DX =   -0.0002              !
 ! D23   D(9,2,4,7)           -160.9756         -DE/DX =   -0.0001              !
 ! D24   D(9,2,4,8)              3.6246         -DE/DX =   -0.0003              !
 ! D25   D(10,2,4,3)          -101.3245         -DE/DX =    0.0002              !
 ! D26   D(10,2,4,7)            -3.6246         -DE/DX =    0.0003              !
 ! D27   D(10,2,4,8)           160.9756         -DE/DX =    0.0001              !
 ! D28   D(1,3,4,2)              0.0            -DE/DX =    0.0                 !
 ! D29   D(1,3,4,7)           -119.3392         -DE/DX =    0.0                 !
 ! D30   D(1,3,4,8)            119.3392         -DE/DX =    0.0                 !
 ! D31   D(5,3,4,2)            120.5345         -DE/DX =    0.0                 !
 ! D32   D(5,3,4,7)              1.1953         -DE/DX =    0.0001              !
 ! D33   D(5,3,4,8)           -120.1263         -DE/DX =    0.0                 !
 ! D34   D(6,3,4,2)           -120.5345         -DE/DX =    0.0                 !
 ! D35   D(6,3,4,7)            120.1263         -DE/DX =    0.0                 !
 ! D36   D(6,3,4,8)             -1.1953         -DE/DX =   -0.0001              !
 --------------------------------------------------------------------------------
 Lowest energy point so far.  Saving SCF results.
 Iteration  1 RMS(Cart)=  0.02758594 RMS(Int)=  0.00842012
 Iteration  2 RMS(Cart)=  0.00010847 RMS(Int)=  0.00841973
 Iteration  3 RMS(Cart)=  0.00000039 RMS(Int)=  0.00841973
 Iteration  1 RMS(Cart)=  0.00563766 RMS(Int)=  0.00240689
 Iteration  2 RMS(Cart)=  0.00161166 RMS(Int)=  0.00264119
 Iteration  3 RMS(Cart)=  0.00046076 RMS(Int)=  0.00278366
 Iteration  4 RMS(Cart)=  0.00013173 RMS(Int)=  0.00282936
 Iteration  5 RMS(Cart)=  0.00003766 RMS(Int)=  0.00284280
 Iteration  6 RMS(Cart)=  0.00001077 RMS(Int)=  0.00284667
 Iteration  7 RMS(Cart)=  0.00000308 RMS(Int)=  0.00284778
 Iteration  8 RMS(Cart)=  0.00000088 RMS(Int)=  0.00284810
 GradGradGradGradGradGradGradGradGradGradGradGradGradGradGradGradGradGrad

 Leave Link  103 at Thu Mar  9 15:20:15 2017, MaxMem=   563347456 cpu:         0.2
 (Enter /share/apps/g09RelD.01/g09/l202.exe)
                          Input orientation:                          
 ---------------------------------------------------------------------
 Center     Atomic      Atomic             Coordinates (Angstroms)
 Number     Number       Type             X           Y           Z
 ---------------------------------------------------------------------
      1          5           0       -0.023656   -1.309281    0.000000
      2          7           0        1.314748    0.686423    0.000000
      3          7           0       -1.287278   -0.643436    0.000000
      4          5           0        0.002691    1.264329    0.000000
      5          1           0       -1.831240   -0.553219    0.841427
      6          1           0       -1.831240   -0.553219   -0.841427
      7          1           0       -0.457297    1.629143    1.041268
      8          1           0       -0.457297    1.629143   -1.041268
      9          1           0        1.865794    0.619029   -0.838911
     10          1           0        1.865794    0.619029    0.838911
     11          1           0        0.417124   -1.699970   -1.040292
     12          1           0        0.417124   -1.699970    1.040292
 ---------------------------------------------------------------------
                    Distance matrix (angstroms):
                    1          2          3          4          5
     1  B    0.000000
     2  N    2.402948   0.000000
     3  N    1.428318   2.922168   0.000000
     4  B    2.573745   1.433691   2.302951   0.000000
     5  H    2.132367   3.484531   1.005998   2.715655   0.000000
     6  H    2.132367   3.484531   1.005998   2.715655   1.682854
     7  H    3.147479   2.261218   2.633956   1.195374   2.586574
     8  H    3.147479   2.261218   2.633956   1.195374   3.192956
     9  H    2.827043   1.005965   3.498493   2.142741   4.226791
    10  H    2.827043   1.005965   3.498493   2.142741   3.878432
    11  H    1.195463   2.753690   2.259084   3.168759   3.148181
    12  H    1.195463   2.753690   2.259084   3.168759   2.531743
                    6          7          8          9         10
     6  H    0.000000
     7  H    3.192956   0.000000
     8  H    2.586574   2.082537   0.000000
     9  H    3.878432   3.154704   2.541266   0.000000
    10  H    4.226791   2.541266   3.154704   1.677822   0.000000
    11  H    2.531743   4.022499   3.442035   2.741707   3.317802
    12  H    3.148181   3.442035   4.022499   3.317802   2.741707
                   11         12
    11  H    0.000000
    12  H    2.080584   0.000000
 Stoichiometry    B2H8N2
 Framework group  CS[SG(B2N2),X(H8)]
 Deg. of freedom    17
 Full point group                 CS      NOp   2
 RotChk:  IX=3 Diff= 3.46D-04
 Largest Abelian subgroup         CS      NOp   2
 Largest concise Abelian subgroup CS      NOp   2
                         Standard orientation:                         
 ---------------------------------------------------------------------
 Center     Atomic      Atomic             Coordinates (Angstroms)
 Number     Number       Type             X           Y           Z
 ---------------------------------------------------------------------
      1          5           0        0.025717    1.311354    0.000000
      2          7           0       -1.312199   -0.684678    0.000000
      3          7           0        1.289502    0.645817    0.000000
      4          5           0        0.000000   -1.262263    0.000000
      5          1           0        1.833486    0.555734    0.841427
      6          1           0        1.833486    0.555734   -0.841427
      7          1           0        0.460077   -1.626965    1.041268
      8          1           0        0.460077   -1.626965   -1.041268
      9          1           0       -1.863261   -0.617418   -0.838911
     10          1           0       -1.863261   -0.617418    0.838911
     11          1           0       -0.415158    1.701935   -1.040292
     12          1           0       -0.415158    1.701935    1.040292
 ---------------------------------------------------------------------
 Rotational constants (GHZ):     11.7927844      5.3217961      4.0956512
 Leave Link  202 at Thu Mar  9 15:20:15 2017, MaxMem=   563347456 cpu:         0.0
 (Enter /share/apps/g09RelD.01/g09/l301.exe)
 Standard basis: 6-311G(d,p) (5D, 7F)
 Ernie: Thresh=  0.10000D-02 Tol=  0.10000D-05 Strict=F.
 There are    80 symmetry adapted cartesian basis functions of A'  symmetry.
 There are    44 symmetry adapted cartesian basis functions of A"  symmetry.
 There are    76 symmetry adapted basis functions of A'  symmetry.
 There are    44 symmetry adapted basis functions of A"  symmetry.
   120 basis functions,   192 primitive gaussians,   124 cartesian basis functions
    16 alpha electrons       16 beta electrons
       nuclear repulsion energy       112.8411188614 Hartrees.
 IExCor= 4639 DFT=T Ex+Corr=wB97XD ExCW=0 ScaHFX=  1.000000
 ScaDFX=  1.000000  1.000000  1.000000  1.000000 ScalE2=  1.000000  1.000000
 IRadAn=      5 IRanWt=     -1 IRanGd=            0 ICorTp=0 IEmpDi=121
  HFx wShort=  0.000000 wLong=  0.200000 cFull=  0.222036 cShort=  0.000000 cLong=  0.777964
  DFx wShort=  0.000000 wLong=  0.200000 cFull=  0.000000 cShort=  0.000000 cLong=  1.000000
 NAtoms=   12 NActive=   12 NUniq=    8 SFac= 2.25D+00 NAtFMM=   60 NAOKFM=F Big=F
 Integral buffers will be    131072 words long.
 Raffenetti 2 integral format.
 Two-electron integral symmetry is turned on.
 R6Disp:  Grimme-D2 Dispersion energy=       -0.0056491874 Hartrees.
 Nuclear repulsion after empirical dispersion term =      112.8354696740 Hartrees.
 Leave Link  301 at Thu Mar  9 15:20:15 2017, MaxMem=   563347456 cpu:         0.4
 (Enter /share/apps/g09RelD.01/g09/l302.exe)
 NPDir=0 NMtPBC=     1 NCelOv=     1 NCel=       1 NClECP=     1 NCelD=      1
         NCelK=      1 NCelE2=     1 NClLst=     1 CellRange=     0.0.
 One-electron integrals computed using PRISM.
 One-electron integral symmetry used in STVInt
 NBasis=   120 RedAO= T EigKep=  6.04D-03  NBF=    76    44
 NBsUse=   120 1.00D-06 EigRej= -1.00D+00 NBFU=    76    44
 Precomputing XC quadrature grid using
 IXCGrd= 4 IRadAn=           5 IRanWt=          -1 IRanGd=           0 AccXCQ= 0.00D+00.
 Generated NRdTot=       0 NPtTot=           0 NUsed=           0 NTot=          32
 NSgBfM=   124   124   124   124   124 MxSgAt=    12 MxSgA2=    12.
 Leave Link  302 at Thu Mar  9 15:20:15 2017, MaxMem=   563347456 cpu:         1.5
 (Enter /share/apps/g09RelD.01/g09/l303.exe)
 DipDrv:  MaxL=1.
 Leave Link  303 at Thu Mar  9 15:20:15 2017, MaxMem=   563347456 cpu:         0.2
 (Enter /share/apps/g09RelD.01/g09/l401.exe)
 Initial guess from the checkpoint file:  "AB-AB-NHscan.chk"
 B after Tr=     0.000000    0.000000    0.000000
         Rot=    1.000000    0.000000    0.000000   -0.000887 Ang=  -0.10 deg.
 Guess basis will be translated and rotated to current coordinates.
 JPrj=2 DoOrth=T DoCkMO=T.
 Initial guess orbital symmetries:
       Occupied  (A') (A') (A') (A') (A') (A') (A') (A') (A") (A")
                 (A') (A') (A') (A") (A") (A')
       Virtual   (A') (A') (A') (A') (A') (A') (A') (A') (A') (A')
                 (A') (A') (A') (A') (A') (A') (A') (A') (A') (A')
                 (A') (A') (A') (A') (A') (A') (A') (A') (A') (A')
                 (A') (A') (A') (A') (A') (A') (A') (A') (A') (A')
                 (A') (A') (A') (A') (A') (A') (A') (A') (A') (A')
                 (A') (A') (A') (A') (A') (A') (A') (A') (A') (A')
                 (A') (A') (A') (A') (A") (A") (A") (A") (A") (A")
                 (A") (A") (A") (A") (A") (A") (A") (A") (A") (A")
                 (A") (A") (A") (A") (A") (A") (A") (A") (A") (A")
                 (A") (A") (A") (A") (A") (A") (A") (A") (A") (A")
                 (A") (A") (A") (A")
 The electronic state of the initial guess is 1-A'.
 Generating alternative initial guess.
 ExpMin= 9.89D-02 ExpMax= 6.29D+03 ExpMxC= 9.49D+02 IAcc=2 IRadAn=         4 AccDes= 0.00D+00
 Harris functional with IExCor= 4639 and IRadAn=       4 diagonalized for initial guess.
 HarFok:  IExCor= 4639 AccDes= 0.00D+00 IRadAn=         4 IDoV= 1 UseB2=F ITyADJ=14
 ICtDFT=  3500011 ScaDFX=  1.000000  1.000000  1.000000  1.000000
 FoFCou: FMM=F IPFlag=           0 FMFlag=      100000 FMFlg1=           0
         NFxFlg=           0 DoJE=T BraDBF=F KetDBF=T FulRan=T
         wScrn=  0.000000 ICntrl=     500 IOpCl=  0 I1Cent=   200000004 NGrid=           0
         NMat0=    1 NMatS0=      1 NMatT0=    0 NMatD0=    1 NMtDS0=    0 NMtDT0=    0
 Petite list used in FoFCou.
 Harris En= -156.189383163109    
 Leave Link  401 at Thu Mar  9 15:20:16 2017, MaxMem=   563347456 cpu:         3.1
 (Enter /share/apps/g09RelD.01/g09/l502.exe)
 Closed shell SCF:
 Using DIIS extrapolation, IDIIS=  1040.
 Integral symmetry usage will be decided dynamically.
 Keep R1 ints in memory in symmetry-blocked form, NReq=79321962.
 IVT=       66538 IEndB=       66538 NGot=   563347456 MDV=   550002801
 LenX=   550002801 LenY=   549986984
 Requested convergence on RMS density matrix=1.00D-08 within 128 cycles.
 Requested convergence on MAX density matrix=1.00D-06.
 Requested convergence on             energy=1.00D-06.
 No special actions if energy rises.
 FoFCou: FMM=F IPFlag=           0 FMFlag=           0 FMFlg1=           0
         NFxFlg=           0 DoJE=F BraDBF=F KetDBF=F FulRan=T
         wScrn=  0.000000 ICntrl=     600 IOpCl=  0 I1Cent=           0 NGrid=           0
         NMat0=    1 NMatS0=   7260 NMatT0=    0 NMatD0=    1 NMtDS0=    0 NMtDT0=    0
 Petite list used in FoFCou.
 Integral accuracy reduced to 1.0D-05 until final iterations.

 Cycle   1  Pass 0  IDiag  1:
 E= -164.062999775368    
 DIIS: error= 3.04D-03 at cycle   1 NSaved=   1.
 NSaved= 1 IEnMin= 1 EnMin= -164.062999775368     IErMin= 1 ErrMin= 3.04D-03
 ErrMax= 3.04D-03  0.00D+00 EMaxC= 1.00D-01 BMatC= 6.04D-04 BMatP= 6.04D-04
 IDIUse=3 WtCom= 9.70D-01 WtEn= 3.04D-02
 Coeff-Com:  0.100D+01
 Coeff-En:   0.100D+01
 Coeff:      0.100D+01
 Gap=     0.756 Goal=   None    Shift=    0.000
 GapD=    0.756 DampG=2.000 DampE=1.000 DampFc=2.0000 IDamp=-1.
 RMSDP=2.41D-04 MaxDP=3.19D-03              OVMax= 1.27D-02

 Cycle   2  Pass 0  IDiag  1:
 E= -164.064167804968     Delta-E=       -0.001168029599 Rises=F Damp=F
 DIIS: error= 1.08D-03 at cycle   2 NSaved=   2.
 NSaved= 2 IEnMin= 2 EnMin= -164.064167804968     IErMin= 2 ErrMin= 1.08D-03
 ErrMax= 1.08D-03  0.00D+00 EMaxC= 1.00D-01 BMatC= 3.56D-05 BMatP= 6.04D-04
 IDIUse=3 WtCom= 9.89D-01 WtEn= 1.08D-02
 Coeff-Com: -0.152D+00 0.115D+01
 Coeff-En:   0.000D+00 0.100D+01
 Coeff:     -0.150D+00 0.115D+01
 Gap=     0.408 Goal=   None    Shift=    0.000
 RMSDP=7.89D-05 MaxDP=9.87D-04 DE=-1.17D-03 OVMax= 5.66D-03

 Cycle   3  Pass 0  IDiag  1:
 E= -164.064266702407     Delta-E=       -0.000098897440 Rises=F Damp=F
 DIIS: error= 3.51D-04 at cycle   3 NSaved=   3.
 NSaved= 3 IEnMin= 3 EnMin= -164.064266702407     IErMin= 3 ErrMin= 3.51D-04
 ErrMax= 3.51D-04  0.00D+00 EMaxC= 1.00D-01 BMatC= 1.26D-05 BMatP= 3.56D-05
 IDIUse=3 WtCom= 9.96D-01 WtEn= 3.51D-03
 Coeff-Com: -0.949D-01 0.446D+00 0.649D+00
 Coeff-En:   0.000D+00 0.000D+00 0.100D+01
 Coeff:     -0.945D-01 0.445D+00 0.650D+00
 Gap=     0.408 Goal=   None    Shift=    0.000
 RMSDP=2.37D-05 MaxDP=5.98D-04 DE=-9.89D-05 OVMax= 1.75D-03

 Cycle   4  Pass 0  IDiag  1:
 E= -164.064279947782     Delta-E=       -0.000013245375 Rises=F Damp=F
 DIIS: error= 1.74D-04 at cycle   4 NSaved=   4.
 NSaved= 4 IEnMin= 4 EnMin= -164.064279947782     IErMin= 4 ErrMin= 1.74D-04
 ErrMax= 1.74D-04  0.00D+00 EMaxC= 1.00D-01 BMatC= 1.59D-06 BMatP= 1.26D-05
 IDIUse=3 WtCom= 9.98D-01 WtEn= 1.74D-03
 Coeff-Com:  0.192D-02-0.910D-01 0.207D+00 0.882D+00
 Coeff-En:   0.000D+00 0.000D+00 0.000D+00 0.100D+01
 Coeff:      0.191D-02-0.909D-01 0.207D+00 0.882D+00
 Gap=     0.408 Goal=   None    Shift=    0.000
 RMSDP=1.49D-05 MaxDP=3.31D-04 DE=-1.32D-05 OVMax= 1.18D-03

 Cycle   5  Pass 0  IDiag  1:
 E= -164.064282945918     Delta-E=       -0.000002998136 Rises=F Damp=F
 DIIS: error= 4.96D-05 at cycle   5 NSaved=   5.
 NSaved= 5 IEnMin= 5 EnMin= -164.064282945918     IErMin= 5 ErrMin= 4.96D-05
 ErrMax= 4.96D-05  0.00D+00 EMaxC= 1.00D-01 BMatC= 7.54D-08 BMatP= 1.59D-06
 IDIUse=1 WtCom= 1.00D+00 WtEn= 0.00D+00
 Coeff-Com:  0.832D-02-0.506D-01-0.450D-01 0.917D-01 0.996D+00
 Coeff:      0.832D-02-0.506D-01-0.450D-01 0.917D-01 0.996D+00
 Gap=     0.408 Goal=   None    Shift=    0.000
 RMSDP=5.51D-06 MaxDP=1.12D-04 DE=-3.00D-06 OVMax= 4.97D-04

 Initial convergence to 1.0D-05 achieved.  Increase integral accuracy.
 Cycle   6  Pass 1  IDiag  1:
 E= -164.064315034979     Delta-E=       -0.000032089061 Rises=F Damp=F
 DIIS: error= 6.19D-05 at cycle   1 NSaved=   1.
 NSaved= 1 IEnMin= 1 EnMin= -164.064315034979     IErMin= 1 ErrMin= 6.19D-05
 ErrMax= 6.19D-05  0.00D+00 EMaxC= 1.00D-01 BMatC= 2.76D-07 BMatP= 2.76D-07
 IDIUse=1 WtCom= 1.00D+00 WtEn= 0.00D+00
 Coeff-Com:  0.100D+01
 Coeff:      0.100D+01
 Gap=     0.408 Goal=   None    Shift=    0.000
 RMSDP=5.51D-06 MaxDP=1.12D-04 DE=-3.21D-05 OVMax= 1.60D-04

 Cycle   7  Pass 1  IDiag  1:
 E= -164.064315351993     Delta-E=       -0.000000317014 Rises=F Damp=F
 DIIS: error= 1.08D-05 at cycle   2 NSaved=   2.
 NSaved= 2 IEnMin= 2 EnMin= -164.064315351993     IErMin= 2 ErrMin= 1.08D-05
 ErrMax= 1.08D-05  0.00D+00 EMaxC= 1.00D-01 BMatC= 1.11D-08 BMatP= 2.76D-07
 IDIUse=1 WtCom= 1.00D+00 WtEn= 0.00D+00
 Coeff-Com: -0.978D-01 0.110D+01
 Coeff:     -0.978D-01 0.110D+01
 Gap=     0.408 Goal=   None    Shift=    0.000
 RMSDP=1.31D-06 MaxDP=2.06D-05 DE=-3.17D-07 OVMax= 7.38D-05

 Cycle   8  Pass 1  IDiag  1:
 E= -164.064315366432     Delta-E=       -0.000000014438 Rises=F Damp=F
 DIIS: error= 8.15D-06 at cycle   3 NSaved=   3.
 NSaved= 3 IEnMin= 3 EnMin= -164.064315366432     IErMin= 3 ErrMin= 8.15D-06
 ErrMax= 8.15D-06  0.00D+00 EMaxC= 1.00D-01 BMatC= 5.83D-09 BMatP= 1.11D-08
 IDIUse=1 WtCom= 1.00D+00 WtEn= 0.00D+00
 Coeff-Com: -0.675D-01 0.488D+00 0.579D+00
 Coeff:     -0.675D-01 0.488D+00 0.579D+00
 Gap=     0.408 Goal=   None    Shift=    0.000
 RMSDP=3.96D-07 MaxDP=1.29D-05 DE=-1.44D-08 OVMax= 3.22D-05

 Cycle   9  Pass 1  IDiag  1:
 E= -164.064315371562     Delta-E=       -0.000000005131 Rises=F Damp=F
 DIIS: error= 2.70D-06 at cycle   4 NSaved=   4.
 NSaved= 4 IEnMin= 4 EnMin= -164.064315371562     IErMin= 4 ErrMin= 2.70D-06
 ErrMax= 2.70D-06  0.00D+00 EMaxC= 1.00D-01 BMatC= 3.52D-10 BMatP= 5.83D-09
 IDIUse=1 WtCom= 1.00D+00 WtEn= 0.00D+00
 Coeff-Com: -0.316D-02-0.379D-01 0.149D+00 0.893D+00
 Coeff:     -0.316D-02-0.379D-01 0.149D+00 0.893D+00
 Gap=     0.408 Goal=   None    Shift=    0.000
 RMSDP=1.99D-07 MaxDP=3.15D-06 DE=-5.13D-09 OVMax= 1.78D-05

 Cycle  10  Pass 1  IDiag  1:
 E= -164.064315372247     Delta-E=       -0.000000000685 Rises=F Damp=F
 DIIS: error= 7.56D-07 at cycle   5 NSaved=   5.
 NSaved= 5 IEnMin= 5 EnMin= -164.064315372247     IErMin= 5 ErrMin= 7.56D-07
 ErrMax= 7.56D-07  0.00D+00 EMaxC= 1.00D-01 BMatC= 2.26D-11 BMatP= 3.52D-10
 IDIUse=1 WtCom= 1.00D+00 WtEn= 0.00D+00
 Coeff-Com:  0.620D-02-0.521D-01-0.431D-01 0.439D-01 0.105D+01
 Coeff:      0.620D-02-0.521D-01-0.431D-01 0.439D-01 0.105D+01
 Gap=     0.408 Goal=   None    Shift=    0.000
 RMSDP=9.52D-08 MaxDP=1.35D-06 DE=-6.85D-10 OVMax= 9.36D-06

 Cycle  11  Pass 1  IDiag  1:
 E= -164.064315372348     Delta-E=       -0.000000000101 Rises=F Damp=F
 DIIS: error= 2.53D-07 at cycle   6 NSaved=   6.
 NSaved= 6 IEnMin= 6 EnMin= -164.064315372348     IErMin= 6 ErrMin= 2.53D-07
 ErrMax= 2.53D-07  0.00D+00 EMaxC= 1.00D-01 BMatC= 2.56D-12 BMatP= 2.26D-11
 IDIUse=1 WtCom= 1.00D+00 WtEn= 0.00D+00
 Coeff-Com:  0.111D-02-0.408D-02-0.169D-01-0.743D-01 0.136D+00 0.959D+00
 Coeff:      0.111D-02-0.408D-02-0.169D-01-0.743D-01 0.136D+00 0.959D+00
 Gap=     0.408 Goal=   None    Shift=    0.000
 RMSDP=3.07D-08 MaxDP=5.69D-07 DE=-1.01D-10 OVMax= 3.18D-06

 Cycle  12  Pass 1  IDiag  1:
 E= -164.064315372359     Delta-E=       -0.000000000010 Rises=F Damp=F
 DIIS: error= 8.61D-08 at cycle   7 NSaved=   7.
 NSaved= 7 IEnMin= 7 EnMin= -164.064315372359     IErMin= 7 ErrMin= 8.61D-08
 ErrMax= 8.61D-08  0.00D+00 EMaxC= 1.00D-01 BMatC= 7.13D-13 BMatP= 2.56D-12
 IDIUse=1 WtCom= 1.00D+00 WtEn= 0.00D+00
 Coeff-Com: -0.187D-03 0.409D-02-0.209D-02-0.350D-01-0.732D-01 0.370D+00
 Coeff-Com:  0.737D+00
 Coeff:     -0.187D-03 0.409D-02-0.209D-02-0.350D-01-0.732D-01 0.370D+00
 Coeff:      0.737D+00
 Gap=     0.408 Goal=   None    Shift=    0.000
 RMSDP=1.05D-08 MaxDP=1.99D-07 DE=-1.03D-11 OVMax= 9.73D-07

 Cycle  13  Pass 1  IDiag  1:
 E= -164.064315372360     Delta-E=       -0.000000000001 Rises=F Damp=F
 DIIS: error= 2.59D-08 at cycle   8 NSaved=   8.
 NSaved= 8 IEnMin= 8 EnMin= -164.064315372360     IErMin= 8 ErrMin= 2.59D-08
 ErrMax= 2.59D-08  0.00D+00 EMaxC= 1.00D-01 BMatC= 4.73D-14 BMatP= 7.13D-13
 IDIUse=1 WtCom= 1.00D+00 WtEn= 0.00D+00
 Coeff-Com: -0.227D-03 0.169D-02 0.192D-02 0.379D-02-0.335D-01-0.699D-01
 Coeff-Com:  0.133D+00 0.963D+00
 Coeff:     -0.227D-03 0.169D-02 0.192D-02 0.379D-02-0.335D-01-0.699D-01
 Coeff:      0.133D+00 0.963D+00
 Gap=     0.408 Goal=   None    Shift=    0.000
 RMSDP=4.07D-09 MaxDP=7.30D-08 DE=-1.25D-12 OVMax= 3.83D-07

 SCF Done:  E(RwB97XD) =  -164.064315372     A.U. after   13 cycles
            NFock= 13  Conv=0.41D-08     -V/T= 2.0045
 KE= 1.633362866470D+02 PE=-6.069916161112D+02 EE= 1.667555444178D+02
 Leave Link  502 at Thu Mar  9 15:20:34 2017, MaxMem=   563347456 cpu:        70.7
 (Enter /share/apps/g09RelD.01/g09/l701.exe)
 Compute integral first derivatives.
 ... and contract with generalized density number  0.
 R6Disp: Adding Grimme-D2 dispersion energy 1st derivatives to the gradient.
 Leave Link  701 at Thu Mar  9 15:20:35 2017, MaxMem=   563347456 cpu:         1.0
 (Enter /share/apps/g09RelD.01/g09/l702.exe)
 L702 exits ... SP integral derivatives will be done elsewhere.
 Leave Link  702 at Thu Mar  9 15:20:35 2017, MaxMem=   563347456 cpu:         0.2
 (Enter /share/apps/g09RelD.01/g09/l703.exe)
 Compute integral first derivatives, UseDBF=F ICtDFT=           0.
 Integral derivatives from FoFJK, PRISM(SPDF).
 Calling FoFJK, ICntrl=      2127 FMM=F ISym2X=1 I1Cent= 0 IOpClX= 0 NMat=1 NMatS=1 NMatT=0.
 FoFJK:  IHMeth= 1 ICntrl=    2127 DoSepK=T KAlg= 0 I1Cent=   0 FoldK=F
 IRaf=         1 NMat=   1 IRICut=       1 DoRegI=T DoRafI=F ISym2E= 1.
 FoFCou: FMM=F IPFlag=           0 FMFlag=      100000 FMFlg1=         800
         NFxFlg=           0 DoJE=F BraDBF=F KetDBF=F FulRan=T
         wScrn=  0.000000 ICntrl=    2527 IOpCl=  0 I1Cent=           0 NGrid=           0
         NMat0=    1 NMatS0=      1 NMatT0=    0 NMatD0=    1 NMtDS0=    0 NMtDT0=    0
 Petite list used in FoFCou.
 Leave Link  703 at Thu Mar  9 15:20:39 2017, MaxMem=   563347456 cpu:        17.8
 (Enter /share/apps/g09RelD.01/g09/l716.exe)
 Dipole        = 4.01612573D-02 4.64324952D-02-2.22044605D-16
 ***** Axes restored to original set *****
 -------------------------------------------------------------------
 Center     Atomic                   Forces (Hartrees/Bohr)
 Number     Number              X              Y              Z
 -------------------------------------------------------------------
      1        5          -0.006103974   -0.004520188    0.000000000
      2        7          -0.001214851    0.005444923    0.000000000
      3        7          -0.000252564   -0.007641708    0.000000000
      4        5           0.007854971    0.002407794    0.000000000
      5        1          -0.000107285    0.000894227   -0.000045559
      6        1          -0.000107285    0.000894227    0.000045559
      7        1          -0.000106883    0.000044672    0.000126767
      8        1          -0.000106883    0.000044672   -0.000126767
      9        1          -0.000813719   -0.000662966   -0.000354595
     10        1          -0.000813719   -0.000662966    0.000354595
     11        1           0.000886097    0.001878657    0.000039698
     12        1           0.000886097    0.001878657   -0.000039698
 -------------------------------------------------------------------
 Cartesian Forces:  Max     0.007854971 RMS     0.002514091
 Leave Link  716 at Thu Mar  9 15:20:39 2017, MaxMem=   563347456 cpu:         0.2
 (Enter /share/apps/g09RelD.01/g09/l103.exe)

 GradGradGradGradGradGradGradGradGradGradGradGradGradGradGradGradGradGrad
 Berny optimization.
 FormGI is forming the generalized inverse of G from B-inverse, IUseBI=4.
 Internal  Forces:  Max     0.005610877 RMS     0.001082380
 Search for a local minimum.
 Step number   1 out of a maximum of   82 on scan point     2 out of     2
 All quantities printed in internal units (Hartrees-Bohrs-Radians)
 RMS Force = .79700D-03 SwitMx=.10000D-02 MixMth= 1
 Mixed Optimization -- RFO/linear search
 Second derivative matrix not updated -- first step.
 ITU=  0
     Eigenvalues ---    0.00550   0.02636   0.03706   0.03790   0.04152
     Eigenvalues ---    0.04447   0.04709   0.04843   0.06664   0.07285
     Eigenvalues ---    0.07649   0.07958   0.07979   0.08037   0.08226
     Eigenvalues ---    0.08634   0.09040   0.21794   0.24995   0.24995
     Eigenvalues ---    0.25016   0.25016   0.38360   0.40921   0.46643
     Eigenvalues ---    0.46643   0.46648   0.466481000.000001000.00000
     Eigenvalues --- 1000.000001000.000001000.000001000.000001000.00000
     Eigenvalues --- 1000.000001000.000001000.000001000.000001000.00000
     Eigenvalues --- 1000.000001000.000001000.000001000.000001000.00000
     Eigenvalues --- 1000.000001000.000001000.000001000.000001000.00000
     Eigenvalues --- 1000.000001000.000001000.000001000.000001000.00000
     Eigenvalues --- 1000.000001000.000001000.000001000.000001000.00000
     Eigenvalues --- 1000.000001000.000001000.000001000.000001000.00000
     Eigenvalues --- 1000.000001000.000001000.000001000.000001000.00000
     Eigenvalues --- 1000.000001000.00000
 RFO step:  Lambda=-3.12752232D-04 EMin= 5.49532314D-03
 Linear search not attempted -- first point.
 Iteration  1 RMS(Cart)=  0.00744444 RMS(Int)=  0.00010659
 Iteration  2 RMS(Cart)=  0.00007393 RMS(Int)=  0.00007124
 Iteration  3 RMS(Cart)=  0.00000001 RMS(Int)=  0.00007124
 Iteration  1 RMS(Cart)=  0.00000111 RMS(Int)=  0.00000047
 Iteration  2 RMS(Cart)=  0.00000032 RMS(Int)=  0.00000052
 ITry= 1 IFail=0 DXMaxC= 3.08D-02 DCOld= 1.00D+10 DXMaxT= 3.00D-01 DXLimC= 3.00D+00 Rises=F
 ClnCor:  largest displacement from symmetrization is 6.13D-10 for atom    12.
 Variable       Old X    -DE/DX   Delta X   Delta X   Delta X     New X
                                 (Linear)    (Quad)   (Total)
    R1        4.54091   0.00256   0.00000   0.00000   0.00000   4.54091
    R2        2.69913  -0.00305   0.00000  -0.00691  -0.00691   2.69222
    R3        2.25910  -0.00032   0.00000  -0.00128  -0.00128   2.25782
    R4        2.25910  -0.00032   0.00000  -0.00128  -0.00128   2.25782
    R5        2.70928  -0.00487   0.00000  -0.01239  -0.01239   2.69690
    R6        1.90100  -0.00011   0.00000  -0.00023  -0.00023   1.90077
    R7        1.90100  -0.00011   0.00000  -0.00023  -0.00023   1.90077
    R8        4.35195   0.00561   0.00000   0.00000   0.00000   4.35195
[...]
 ! A18   A(5,3,6)              113.551          -DE/DX =    0.0                 !
 ! A19   A(2,4,3)              101.2695         -DE/DX =   -0.0005              !
 ! A20   A(2,4,7)              118.4888         -DE/DX =    0.0                 !
 ! A21   A(2,4,8)              118.4888         -DE/DX =    0.0                 !
 ! A22   A(3,4,7)               91.6542         -DE/DX =    0.0002              !
 ! A23   A(3,4,8)               91.6542         -DE/DX =    0.0002              !
 ! A24   A(7,4,8)              120.929          -DE/DX =    0.0                 !
 ! D1    D(3,1,2,4)              0.0            -DE/DX =    0.0                 !
 ! D2    D(3,1,2,9)           -121.3138         -DE/DX =    0.0                 !
 ! D3    D(3,1,2,10)           121.3138         -DE/DX =    0.0                 !
 ! D4    D(11,1,2,4)           119.2119         -DE/DX =    0.0                 !
 ! D5    D(11,1,2,9)            -2.1019         -DE/DX =    0.0                 !
 ! D6    D(11,1,2,10)         -119.4743         -DE/DX =    0.0                 !
 ! D7    D(12,1,2,4)          -119.2119         -DE/DX =    0.0                 !
 ! D8    D(12,1,2,9)           119.4743         -DE/DX =    0.0                 !
 ! D9    D(12,1,2,10)            2.1019         -DE/DX =    0.0                 !
 ! D10   D(2,1,3,4)              0.0            -DE/DX =    0.0                 !
 ! D11   D(2,1,3,5)            -98.2141         -DE/DX =    0.0                 !
 ! D12   D(2,1,3,6)             98.2141         -DE/DX =    0.0                 !
 ! D13   D(11,1,3,4)           -95.8916         -DE/DX =   -0.0001              !
 ! D14   D(11,1,3,5)           165.8943         -DE/DX =    0.0                 !
 ! D15   D(11,1,3,6)             2.3225         -DE/DX =   -0.0001              !
 ! D16   D(12,1,3,4)            95.8916         -DE/DX =    0.0001              !
 ! D17   D(12,1,3,5)            -2.3225         -DE/DX =    0.0001              !
 ! D18   D(12,1,3,6)          -165.8943         -DE/DX =    0.0                 !
 ! D19   D(1,2,4,3)              0.0            -DE/DX =    0.0                 !
 ! D20   D(1,2,4,7)             98.1423         -DE/DX =    0.0                 !
 ! D21   D(1,2,4,8)            -98.1423         -DE/DX =    0.0                 !
 ! D22   D(9,2,4,3)             96.6956         -DE/DX =    0.0                 !
 ! D23   D(9,2,4,7)           -165.1621         -DE/DX =    0.0                 !
 ! D24   D(9,2,4,8)             -1.4467         -DE/DX =    0.0001              !
 ! D25   D(10,2,4,3)           -96.6956         -DE/DX =    0.0                 !
 ! D26   D(10,2,4,7)             1.4467         -DE/DX =   -0.0001              !
 ! D27   D(10,2,4,8)           165.1621         -DE/DX =    0.0                 !
 ! D28   D(1,3,4,2)              0.0            -DE/DX =    0.0                 !
 ! D29   D(1,3,4,7)           -119.4933         -DE/DX =    0.0                 !
 ! D30   D(1,3,4,8)            119.4933         -DE/DX =    0.0                 !
 ! D31   D(5,3,4,2)            121.6228         -DE/DX =    0.0                 !
 ! D32   D(5,3,4,7)              2.1295         -DE/DX =    0.0                 !
 ! D33   D(5,3,4,8)           -118.8838         -DE/DX =   -0.0001              !
 ! D34   D(6,3,4,2)           -121.6228         -DE/DX =    0.0                 !
 ! D35   D(6,3,4,7)            118.8838         -DE/DX =    0.0001              !
 ! D36   D(6,3,4,8)             -2.1295         -DE/DX =    0.0                 !
 --------------------------------------------------------------------------------
 Lowest energy point so far.  Saving SCF results.
 GradGradGradGradGradGradGradGradGradGradGradGradGradGradGradGradGradGrad

 Summary of Optimized Potential Surface Scan
                           1         2
     Eigenvalues --  -164.06375-164.06473
           R1           2.30295   2.40295
           R2           1.43054   1.41934
           R3           1.19553   1.19454
           R4           1.19553   1.19454
           R5           1.43028   1.42191
           R6           1.00601   1.00532
           R7           1.00601   1.00532
           R8           2.30295   2.30295
           R9           1.00603   1.00581
           R10          1.00603   1.00581
           R11          1.19524   1.19609
           R12          1.19524   1.19609
           A1          98.06502  96.87548
           A2          93.03173  91.82555
           A3          93.03173  91.82555
           A4         118.45430 118.71621
           A5         118.45430 118.71621
           A6         121.11302 121.47229
           A7          81.93359  79.05607
           A8         103.83472 101.45580
           A9         103.83472 101.45580
           A10        121.60260 122.53493
           A11        121.60260 122.53493
           A12        113.25692 113.71506
           A13         81.92850  82.79898
           A14        121.47295 122.30655
           A15        121.47295 122.30655
           A16        104.19322 100.76595
           A17        104.19322 100.76595
           A18        113.23814 113.55096
           A19         98.07289 101.26947
           A20        118.52747 118.48881
           A21        118.52747 118.48881
           A22         92.83631  91.65420
           A23         92.83631  91.65420
           A24        121.07235 120.92897
           D1           0.00000   0.00000
           D2        -120.67530-121.31381
           D3         120.67530 121.31381
           D4         119.30091 119.21189
           D5          -1.37439  -2.10192
           D6        -120.02379-119.47430
           D7        -119.30091-119.21189
           D8         120.02379 119.47430
           D9           1.37439   2.10192
           D10          0.00000   0.00000
           D11       -101.74467 -98.21413
           D12        101.74467  98.21413
           D13        -97.90590 -95.89159
           D14        160.34943 165.89428
           D15          3.83877   2.32253
           D16         97.90590  95.89159
           D17         -3.83877  -2.32253
           D18       -160.34943-165.89428
           D19          0.00000   0.00000
           D20         97.69990  98.14230
           D21        -97.69990 -98.14230
           D22        101.32450  96.69560
           D23       -160.97560-165.16210
           D24          3.62460  -1.44669
           D25       -101.32450 -96.69560
           D26         -3.62460   1.44669
           D27        160.97560 165.16210
           D28          0.00000   0.00000
           D29       -119.33919-119.49333
           D30        119.33919 119.49333
           D31        120.53449 121.62284
           D32          1.19530   2.12952
           D33       -120.12632-118.88383
           D34       -120.53449-121.62284
           D35        120.12632 118.88383
           D36         -1.19530  -2.12952
 Largest change from initial coordinates is atom    2       0.015 Angstoms.
 Leave Link  103 at Thu Mar  9 15:22:13 2017, MaxMem=   563347456 cpu:         0.1
 (Enter /share/apps/g09RelD.01/g09/l202.exe)
                          Input orientation:                          
 ---------------------------------------------------------------------
 Center     Atomic      Atomic             Coordinates (Angstroms)
 Number     Number       Type             X           Y           Z
 ---------------------------------------------------------------------
      1          5           0       -0.022470   -1.301391    0.000000
      2          7           0        1.311303    0.697412    0.000000
      3          7           0       -1.288917   -0.660576    0.000000
      4          5           0        0.000215    1.247754    0.000000
      5          1           0       -1.823401   -0.526252    0.841389
      6          1           0       -1.823401   -0.526252   -0.841389
      7          1           0       -0.468210    1.605856    1.040655
      8          1           0       -0.468210    1.605856   -1.040655
      9          1           0        1.848085    0.579265   -0.841767
     10          1           0        1.848085    0.579265    0.841767
     11          1           0        0.441094   -1.656468   -1.042087
     12          1           0        0.441094   -1.656468    1.042087
 ---------------------------------------------------------------------
                    Distance matrix (angstroms):
                    1          2          3          4          5
     1  B    0.000000
     2  N    2.402949   0.000000
     3  N    1.419342   2.933475   0.000000
     4  B    2.549245   1.421910   2.302951   0.000000
     5  H    2.133572   3.468668   1.005809   2.679665   0.000000
     6  H    2.133572   3.468668   1.005809   2.679665   1.682778
     7  H    3.119893   2.252754   2.625497   1.196086   2.534192
     8  H    3.119893   2.252754   2.625497   1.196086   3.150320
     9  H    2.782879   1.005319   3.476573   2.137773   4.187480
    10  H    2.782879   1.005319   3.476573   2.137773   3.834315
    11  H    1.194536   2.717345   2.251818   3.116861   3.154807
    12  H    1.194536   2.717345   2.251818   3.116861   2.538820
                    6          7          8          9         10
     6  H    0.000000
     7  H    3.150320   0.000000
     8  H    2.534192   2.081310   0.000000
     9  H    3.834315   3.156363   2.541391   0.000000
    10  H    4.187480   2.541391   3.156363   1.683534   0.000000
    11  H    2.538820   3.975853   3.386679   2.649199   3.244539
    12  H    3.154807   3.386679   3.975853   3.244539   2.649199
                   11         12
    11  H    0.000000
    12  H    2.084174   0.000000
 Stoichiometry    B2H8N2
 Framework group  CS[SG(B2N2),X(H8)]
 Deg. of freedom    17
 Full point group                 CS      NOp   2
 RotChk:  IX=3 Diff= 0.00D+00
 Largest Abelian subgroup         CS      NOp   2
 Largest concise Abelian subgroup CS      NOp   2
                         Standard orientation:                         
 ---------------------------------------------------------------------
 Center     Atomic      Atomic             Coordinates (Angstroms)
 Number     Number       Type             X           Y           Z
 ---------------------------------------------------------------------
      1          5           0        0.024835    1.301197    0.000000
      2          7           0       -1.310623   -0.696480    0.000000
      3          7           0        1.290741    0.659315    0.000000
      4          5           0        0.000000   -1.247927    0.000000
      5          1           0        1.825111    0.524539    0.841389
      6          1           0        1.825111    0.524539   -0.841389
      7          1           0        0.468123   -1.606424    1.040655
      8          1           0        0.468123   -1.606424   -1.040655
      9          1           0       -1.847306   -0.577880   -0.841767
     10          1           0       -1.847306   -0.577880    0.841767
     11          1           0       -0.438429    1.656666   -1.042087
     12          1           0       -0.438429    1.656666    1.042087
 ---------------------------------------------------------------------
 Rotational constants (GHZ):     11.9524047      5.3417764      4.1276480
 Leave Link  202 at Thu Mar  9 15:22:13 2017, MaxMem=   563347456 cpu:         0.0
 (Enter /share/apps/g09RelD.01/g09/l601.exe)
 Copying SCF densities to generalized density rwf, IOpCl= 0 IROHF=0.

 **********************************************************************

            Population analysis using the SCF density.

 **********************************************************************

 Orbital symmetries:
       Occupied  (A') (A') (A') (A') (A') (A') (A') (A') (A") (A")
                 (A') (A') (A') (A") (A") (A')
       Virtual   (A') (A') (A') (A") (A') (A") (A') (A') (A") (A')
                 (A") (A') (A') (A") (A') (A") (A') (A') (A') (A")
                 (A") (A') (A') (A') (A') (A') (A") (A") (A') (A')
                 (A") (A") (A') (A') (A') (A") (A') (A") (A') (A')
                 (A") (A') (A") (A') (A") (A") (A') (A') (A') (A")
                 (A") (A") (A') (A") (A') (A') (A') (A") (A") (A')
                 (A') (A") (A") (A') (A') (A') (A') (A") (A') (A")
                 (A') (A') (A') (A') (A") (A") (A") (A') (A") (A')
                 (A') (A") (A") (A') (A') (A') (A') (A") (A") (A')
                 (A') (A') (A") (A") (A') (A') (A') (A') (A") (A")
                 (A') (A') (A') (A')
 The electronic state is 1-A'.
 Alpha  occ. eigenvalues --  -14.42201 -14.41355  -6.84212  -6.83693  -0.97139
 Alpha  occ. eigenvalues --   -0.95410  -0.62241  -0.60424  -0.60230  -0.58653
 Alpha  occ. eigenvalues --   -0.48001  -0.47616  -0.42066  -0.40324  -0.39653
 Alpha  occ. eigenvalues --   -0.32710
 Alpha virt. eigenvalues --    0.08315   0.11071   0.14373   0.15260   0.15399
 Alpha virt. eigenvalues --    0.19539   0.20553   0.21007   0.23654   0.24475
 Alpha virt. eigenvalues --    0.27226   0.28275   0.33986   0.34368   0.39089
 Alpha virt. eigenvalues --    0.39661   0.46059   0.47475   0.51017   0.52401
 Alpha virt. eigenvalues --    0.55586   0.55684   0.55731   0.60144   0.63168
 Alpha virt. eigenvalues --    0.66011   0.67950   0.69991   0.78083   0.78650
 Alpha virt. eigenvalues --    0.79585   0.82869   0.83624   0.91643   0.94930
 Alpha virt. eigenvalues --    1.00330   1.00581   1.01897   1.02145   1.13908
 Alpha virt. eigenvalues --    1.22935   1.25086   1.25634   1.30643   1.31908
 Alpha virt. eigenvalues --    1.34134   1.39497   1.47051   1.64387   1.67070
 Alpha virt. eigenvalues --    1.68053   1.69807   1.73077   1.73999   1.75165
 Alpha virt. eigenvalues --    1.78730   1.81652   1.81763   1.89293   1.93012
 Alpha virt. eigenvalues --    2.00737   2.02329   2.03190   2.06369   2.08808
 Alpha virt. eigenvalues --    2.11901   2.16150   2.18264   2.18997   2.20624
 Alpha virt. eigenvalues --    2.29573   2.31780   2.48799   2.52199   2.52342
 Alpha virt. eigenvalues --    2.57185   2.60055   2.61569   2.61943   2.62698
 Alpha virt. eigenvalues --    2.65120   2.75065   2.77704   2.81916   2.82913
 Alpha virt. eigenvalues --    2.92284   2.94866   2.98933   3.03524   3.04398
 Alpha virt. eigenvalues --    3.11156   3.23450   3.32521   3.33720   3.96083
 Alpha virt. eigenvalues --    4.01116   4.71882   4.83153   4.86591   4.87472
 Alpha virt. eigenvalues --   14.77851  14.78965  35.72868  35.75824
          Condensed to atoms (all electrons):
               1          2          3          4          5          6
     1  B    3.586248   0.043134   0.441713  -0.001266  -0.033676  -0.033676
     2  N    0.043134   6.354648  -0.035247   0.447127   0.000743   0.000743
     3  N    0.441713  -0.035247   6.358162   0.046311   0.376408   0.376408
     4  B   -0.001266   0.447127   0.046311   3.578096  -0.003171  -0.003171
     5  H   -0.033676   0.000743   0.376408  -0.003171   0.462255  -0.034136
     6  H   -0.033676   0.000743   0.376408  -0.003171  -0.034136   0.462255
     7  H   -0.005154  -0.023003  -0.013116   0.437325  -0.001866   0.000927
     8  H   -0.005154  -0.023003  -0.013116   0.437325   0.000927  -0.001866
     9  H   -0.001900   0.377454   0.000635  -0.034957  -0.000061   0.000012
    10  H   -0.001900   0.377454   0.000635  -0.034957   0.000012  -0.000061
    11  H    0.436047  -0.009762  -0.022679  -0.004608   0.006111  -0.010190
    12  H    0.436047  -0.009762  -0.022679  -0.004608  -0.010190   0.006111
               7          8          9         10         11         12
     1  B   -0.005154  -0.005154  -0.001900  -0.001900   0.436047   0.436047
     2  N   -0.023003  -0.023003   0.377454   0.377454  -0.009762  -0.009762
     3  N   -0.013116  -0.013116   0.000635   0.000635  -0.022679  -0.022679
     4  B    0.437325   0.437325  -0.034957  -0.034957  -0.004608  -0.004608
     5  H   -0.001866   0.000927  -0.000061   0.000012   0.006111  -0.010190
     6  H    0.000927  -0.001866   0.000012  -0.000061  -0.010190   0.006111
     7  H    0.695664  -0.027947   0.006314  -0.010358  -0.000394   0.001077
     8  H   -0.027947   0.695664  -0.010358   0.006314   0.001077  -0.000394
     9  H    0.006314  -0.010358   0.467214  -0.034909  -0.001365   0.000751
    10  H   -0.010358   0.006314  -0.034909   0.467214   0.000751  -0.001365
    11  H   -0.000394   0.001077  -0.001365   0.000751   0.684321  -0.027891
    12  H    0.001077  -0.000394   0.000751  -0.001365  -0.027891   0.684321
 Mulliken charges:
               1
     1  B    0.139537
     2  N   -0.500523
     3  N   -0.493433
     4  B    0.140554
     5  H    0.236645
     6  H    0.236645
     7  H   -0.059469
     8  H   -0.059469
     9  H    0.231173
    10  H    0.231173
    11  H   -0.051417
    12  H   -0.051417
 Sum of Mulliken charges =   0.00000
 Mulliken charges with hydrogens summed into heavy atoms:
               1
     1  B    0.036703
     2  N   -0.038178
     3  N   -0.020142
     4  B    0.021617
 Electronic spatial extent (au):  <R**2>=            344.6683
 Charge=              0.0000 electrons
 Dipole moment (field-independent basis, Debye):
    X=              0.1236    Y=              0.1936    Z=              0.0000  Tot=              0.2297
 Quadrupole moment (field-independent basis, Debye-Ang):
   XX=            -21.0540   YY=            -33.1087   ZZ=            -26.4728
   XY=              2.0839   XZ=              0.0000   YZ=              0.0000
 Traceless Quadrupole moment (field-independent basis, Debye-Ang):
   XX=              5.8245   YY=             -6.2302   ZZ=              0.4057
   XY=              2.0839   XZ=              0.0000   YZ=              0.0000
 Octapole moment (field-independent basis, Debye-Ang**2):
  XXX=             -0.0661  YYY=              0.5793  ZZZ=              0.0000  XYY=              0.0564
  XXY=             -0.1491  XXZ=              0.0000  XZZ=             -0.1028  YZZ=             -0.0312
  YYZ=              0.0000  XYZ=              0.0000
 Hexadecapole moment (field-independent basis, Debye-Ang**3):
 XXXX=           -155.7700 YYYY=           -251.4918 ZZZZ=            -65.9733 XXXY=            -20.9727
 XXXZ=              0.0000 YYYX=            -25.6083 YYYZ=              0.0000 ZZZX=              0.0000
 ZZZY=              0.0000 XXYY=            -78.0516 XXZZ=            -29.1254 YYZZ=            -56.0498
 XXYZ=              0.0000 YYXZ=              0.0000 ZZXY=             -4.0714
 N-N= 1.132842594611D+02 E-N=-6.078976751700D+02  KE= 1.633776741838D+02
 Symmetry A'   KE= 1.549926604338D+02
 Symmetry A"   KE= 8.385013749995D+00
 No NMR shielding tensors so no spin-rotation constants.
 Leave Link  601 at Thu Mar  9 15:22:13 2017, MaxMem=   563347456 cpu:         0.9
 (Enter /share/apps/g09RelD.01/g09/l9999.exe)
 1\1\GINC-COMPUTE-0-6\Scan\RwB97XD\6-311G(d,p)\B2H8N2\BERTA\09-Mar-2017
 \0\\#P RwB97XD/6-311G(d,p)int(grid=ultrafine) opt(modred,loose)\\AB2-m
 ult-scan8_1.gjf\\0,1\B,-0.0224699666,-1.3013906303,0.0000000001\N,1.31
 13028279,0.6974122004,0.0000000001\N,-1.2889170721,-0.6605759529,0.000
 0000001\B,0.0002147697,1.2477538399,0.0000000001\H,-1.8234006475,-0.52
 6251523,0.8413892306\H,-1.8234006475,-0.526251523,-0.8413892305\H,-0.4
 682101195,1.6058559183,1.0406551067\H,-0.4682101195,1.6058559183,-1.04
 06551066\H,1.8480850464,0.5792651076,-0.8417672497\H,1.8480850464,0.57
 92651076,0.8417672498\H,0.4410939414,-1.6564682313,-1.0420868392\H,0.4
 410939414,-1.6564682313,1.0420868394\\Version=AS64L-G09RevD.01\State=1
 -A'\HF=-164.0637523,-164.0647266\RMSD=6.224e-09,3.660e-09\PG=CS [SG(B2
 N2),X(H8)]\\@


 LIVE PURE, SPEAK TRUE, RIGHT WRONG, FOLLOW THE KING...
 ELSE, WHEREFORE BORN......
           IDYLLS OF THE KING, TENNYSON
 Job cpu time:       0 days  0 hours  9 minutes 19.8 seconds.
 File lengths (MBytes):  RWF=      9 Int=      0 D2E=      0 Chk=      3 Scr=      1
 Normal termination of Gaussian 09 at Thu Mar  9 15:22:13 2017.
